Si DFT unoccupied states                
   5.4299999999999997     
     0.500000    0.500000    0.000000
     0.000000    0.500000    0.500000
     0.500000    0.000000    0.500000
   Si
     2
Direct
   0.000000  0.000000  0.000000
   0.250000  0.250000  0.250000

   40   40   40
 0.85123      1.5687      3.5660      6.4178      9.5598      12.441      14.641      15.926      16.249      15.719    
  14.562      13.062      11.528      10.174      9.0671      8.2152      7.5906      7.1524      6.8626      6.6965    
  6.6418      6.6962      6.8629      7.1540      7.5933      8.2176      9.0677      10.172      11.526      13.061    
  14.562      15.721      16.248      15.921      14.632      12.431      9.5531      6.4160      3.5679      1.5709    
  1.5687      2.9773      5.4827      8.5609      11.633      14.206      15.958      16.756      16.640      15.783    
  14.447      12.935      11.526      10.342      9.4092      8.7143      8.2191      7.8828      7.6732      7.5721    
  7.5721      7.6733      7.8833      8.2202      8.7157      9.4105      10.342      11.526      12.936      14.448    
  15.783      16.638      16.751      15.950      14.198      11.626      8.5574      5.4822      2.9784      1.5693    
  3.5660      5.4827      8.2006      11.170      13.867      15.901      17.062      17.315      16.772      15.654    
  14.242      12.832      11.612      10.631      9.8875      9.3510      8.9800      8.7376      8.6001      8.5552    
  8.5998      8.7368      8.9788      9.3497      9.8868      10.631      11.614      12.834      14.244      15.654    
  16.770      17.312      17.058      15.898      13.865      11.169      8.2006      5.4830      3.5662      2.8741    
  6.4178      8.5609      11.170      13.740      15.846      17.219      17.753      17.497      16.617      15.362    
  14.015      12.807      11.817      11.056      10.500      10.112      9.8503      9.6885      9.6107      9.6105    
  9.6877      9.8481      10.108      10.496      11.053      11.817      12.809      14.018      15.364      16.617    
  17.495      17.752      17.219      15.849      13.743      11.173      8.5626      6.4181      5.2056      5.2056    
  9.5598      11.633      13.867      15.846      17.266      17.967      17.937      17.287      16.220      14.992    
  13.847      12.894      12.152      11.608      11.223      10.960      10.788      10.689      10.657      10.689    
  10.787      10.957      11.218      11.602      12.149      12.894      13.850      14.995      16.222      17.286    
  17.936      17.968      17.269      15.851      13.872      11.636      9.5611      8.0864      7.5519      8.0861    
  12.441      14.206      15.901      17.219      17.967      18.085      17.630      16.759      15.690      14.657    
  13.786      13.106      12.605      12.253      12.008      11.837      11.725      11.668      11.669      11.726    
  11.838      12.005      12.248      12.600      13.102      13.786      14.660      15.694      16.761      17.630    
  18.084      17.967      17.220      15.903      14.208      12.443      10.973      10.136      10.136      10.972    
  14.641      15.958      17.062      17.753      17.937      17.630      16.943      16.055      15.173      14.427    
  13.847      13.427      13.136      12.929      12.771      12.649      12.569      12.541      12.571      12.652    
  12.773      12.929      13.133      13.423      13.844      14.426      15.175      16.058      16.946      17.631    
  17.936      17.750      17.058      15.956      14.641      13.388      12.486      12.157      12.485      13.387    
  15.926      16.756      17.315      17.497      17.287      16.759      16.055      15.350      14.762      14.319    
  14.015      13.815      13.668      13.536      13.412      13.309      13.249      13.250      13.312      13.416    
  13.541      13.670      13.814      14.011      14.315      14.759      15.351      16.058      16.763      17.289    
  17.495      17.311      16.751      15.923      15.008      14.225      13.773      13.772      14.224      15.008    
  16.249      16.640      16.772      16.617      16.220      15.690      15.173      14.762      14.481      14.321    
  14.242      14.182      14.100      13.988      13.867      13.774      13.739      13.776      13.872      13.994    
  14.106      14.186      14.242      14.318      14.477      14.759      15.173      15.693      16.224      16.620    
  16.773      16.639      16.248      15.700      15.140      14.724      14.569      14.722      15.138      15.699    
  15.719      15.783      15.654      15.362      14.992      14.657      14.427      14.319      14.321      14.388    
  14.447      14.445      14.371      14.248      14.125      14.048      14.050      14.129      14.254      14.377    
  14.451      14.451      14.388      14.319      14.315      14.424      14.656      14.993      15.365      15.658    
  15.787      15.724      15.499      15.189      14.900      14.725      14.724      14.896      15.185      15.494    
  14.562      14.447      14.242      14.015      13.847      13.786      13.847      14.015      14.242      14.447    
  14.562      14.561      14.467      14.331      14.216      14.173      14.220      14.337      14.474      14.568    
  14.567      14.450      14.243      14.014      13.845      13.784      13.845      14.014      14.243      14.450    
  14.567      14.568      14.474      14.337      14.220      14.173      14.216      14.331      14.467      14.561    
  13.062      12.935      12.832      12.807      12.894      13.106      13.427      13.815      14.182      14.445    
  14.561      14.538      14.425      14.292      14.205      14.207      14.296      14.431      14.545      14.568    
  14.450      14.185      13.815      13.427      13.104      12.892      12.804      12.829      12.933      13.061    
  13.159      13.199      13.188      13.152      13.122      13.121      13.148      13.183      13.196      13.158    
  11.528      11.526      11.612      11.817      12.152      12.605      13.136      13.668      14.100      14.371    
  14.467      14.425      14.312      14.204      14.162      14.206      14.316      14.432      14.475      14.378    
  14.105      13.669      13.135      12.604      12.151      11.816      11.611      11.523      11.522      11.573    
  11.635      11.681      11.704      11.710      11.711      11.710      11.704      11.683      11.639      11.579    
  10.174      10.342      10.631      11.056      11.608      12.253      12.929      13.536      13.988      14.248    
  14.331      14.292      14.204      14.140      14.140      14.206      14.296      14.338      14.256      13.994    
  13.539      12.928      12.249      11.605      11.056      10.633      10.343      10.172      10.093      10.075    
  10.089      10.113      10.134      10.145      10.146      10.137      10.119      10.097      10.083      10.099    
  9.0671      9.4092      9.8875      10.500      11.223      12.008      12.771      13.412      13.867      14.125    
  14.216      14.205      14.162      14.140      14.162      14.207      14.221      14.132      13.875      13.417    
  12.771      12.004      11.218      10.498      9.8888      9.4135      9.0717      8.8468      8.7137      8.6454    
  8.6177      8.6115      8.6136      8.6163      8.6167      8.6170      8.6240      8.6505      8.7157      8.8449    
  8.2152      8.7143      9.3510      10.112      10.960      11.837      12.649      13.309      13.774      14.048    
  14.173      14.207      14.206      14.206      14.207      14.176      14.054      13.781      13.316      12.653    
  11.836      10.955      10.106      9.3487      8.7163      8.2207      7.8552      7.6010      7.4352      7.3345    
  7.2786      7.2512      7.2410      7.2416      7.2529      7.2802      7.3346      7.4326      7.5956      7.8484    
  7.5906      8.2191      8.9800      9.8503      10.788      11.725      12.569      13.249      13.739      14.050    
  14.220      14.296      14.316      14.296      14.221      14.054      13.746      13.257      12.576      11.727    
  10.786      9.8457      8.9754      8.2171      7.5920      7.1018      6.7347      6.4718      6.2922      6.1761    
  6.1064      6.0699      6.0580      6.0681      6.1031      6.1717      6.2869      6.4660      6.7292      7.0976    
  7.1524      7.8828      8.7376      9.6885      10.689      11.668      12.541      13.250      13.776      14.129    
  14.337      14.431      14.432      14.338      14.132      13.781      13.257      12.548      11.673      10.690    
  9.6871      8.7345      7.8794      7.1498      6.5546      6.0882      5.7359      5.4798      5.3014      5.1841    
  5.1137      5.0802      5.0786      5.1094      5.1787      5.2966      5.4765      5.7344      6.0881      6.5560    
  6.8626      7.6732      8.6001      9.6107      10.657      11.669      12.571      13.312      13.872      14.254    
  14.474      14.545      14.475      14.256      13.875      13.316      12.576      11.673      10.660      9.6123    
  8.6004      7.6723      6.8604      6.1791      5.6281      5.1968      4.8700      4.6313      4.4648      4.3566    
  4.2957      4.2754      4.2936      4.3537      4.4629      4.6316      4.8728      5.2011      5.6326      6.1827    
  6.6965      7.5721      8.5552      9.6105      10.689      11.726      12.652      13.416      13.994      14.377    
  14.568      14.568      14.378      13.994      13.417      12.653      11.727      10.690      9.6123      8.5574    
  7.5743      6.6976      5.9459      5.3233      4.8231      4.4328      4.1375      3.9226      3.7744      3.6820    
  3.6376      3.6374      3.6819      3.7754      3.9256      4.1426      4.4387      4.8283      5.3265      5.9467    
  6.6418      7.5721      8.5998      9.6877      10.787      11.838      12.773      13.541      14.106      14.451    
  14.567      14.450      14.105      13.539      12.771      11.836      10.786      9.6871      8.6004      7.5743    
  6.6452      5.8345      5.1500      4.5886      4.1406      3.7929      3.5315      3.3433      3.2171      3.1446    
  3.1210      3.1449      3.2183      3.3461      3.5357      3.7974      4.1438      4.5894      5.1483      5.8312    
  6.6962      7.6733      8.7368      9.8481      10.957      12.005      12.929      13.670      14.186      14.451    
  14.450      14.185      13.669      12.928      12.004      10.955      9.8457      8.7345      7.6723      6.6976    
  5.8345      5.0938      4.4757      3.9732      3.5750      3.2685      3.0407      2.8801      2.7778      2.7278    
  2.7277      2.7778      2.8808      3.0421      3.2699      3.5751      3.9710      4.4714      5.0888      5.8306    
  6.8629      7.8833      8.9788      10.108      11.218      12.248      13.133      13.814      14.242      14.388    
  14.243      13.815      13.135      12.249      11.218      10.106      8.9754      7.8794      6.8604      5.9459    
  5.1500      4.4757      3.9186      3.4696      3.1170      2.8485      2.6525      2.5192      2.4418      2.4163    
  2.4414      2.5187      2.6518      2.8474      3.1147      3.4657      3.9135      4.4707      5.1469      5.9457    
  7.1540      8.2202      9.3497      10.496      11.602      12.600      13.423      14.011      14.318      14.319    
  14.014      13.427      12.604      11.605      10.498      9.3487      8.2171      7.1498      6.1791      5.3233    
  4.5886      3.9732      3.4696      3.0675      2.7551      2.5208      2.3544      2.2478      2.1959      2.1960    
  2.2480      2.3541      2.5196      2.7527      3.0640      3.4659      3.9704      4.5879      5.3250      6.1828    
  7.5933      8.7157      9.8868      11.053      12.149      13.102      13.844      14.315      14.477      14.315    
  13.845      13.104      12.151      11.056      9.8888      8.7163      7.5920      6.5546      5.6281      4.8231    
  4.1406      3.5750      3.1170      2.7551      2.4777      2.2741      2.1353      2.0550      2.0290      2.0557    
  2.1362      2.2742      2.4767      2.7535      3.1158      3.5754      4.1430      4.8270      5.6324      6.5578    
  8.2176      9.4105      10.631      11.817      12.894      13.786      14.426      14.759      14.759      14.424    
  13.784      12.892      11.816      10.633      9.4135      8.2207      7.1018      6.0882      5.1968      4.4328    
  3.7929      3.2685      2.8485      2.5208      2.2741      2.0984      1.9862      1.9318      1.9323      1.9872    
  2.0992      2.2741      2.5205      2.8491      3.2711      3.7974      4.4381      5.2008      6.0894      7.1002    
  9.0677      10.342      11.614      12.809      13.850      14.660      15.175      15.351      15.173      14.656    
  13.845      12.804      11.611      10.343      9.0717      7.8552      6.7347      5.7359      4.8700      4.1375    
  3.5315      3.0407      2.6525      2.3544      2.1353      1.9862      1.8999      1.8720      1.9005      1.9866    
  2.1352      2.3539      2.6528      3.0430      3.5357      4.1422      4.8726      5.7348      6.7303      7.8495    
  10.172      11.526      12.834      14.018      14.995      15.694      16.058      16.058      15.693      14.993    
  14.014      12.829      11.523      10.172      8.8468      7.6010      6.4718      5.4798      4.6313      3.9226    
  3.3433      2.8801      2.5192      2.2478      2.0550      1.9318      1.8720      1.8721      1.9318      2.0546    
  2.2471      2.5188      2.8809      3.3453      3.9246      4.6315      5.4768      6.4662      7.5949      8.8431    
  11.526      12.936      14.244      15.364      16.222      16.761      16.946      16.763      16.224      15.365    
  14.243      12.933      11.522      10.093      8.7137      7.4352      6.2922      5.3014      4.4648      3.7744    
  3.2171      2.7778      2.4418      2.1959      2.0290      1.9323      1.9005      1.9318      2.0283      2.1955    
  2.4419      2.7782      3.2172      3.7735      4.4621      5.2972      6.2875      7.4316      8.7127      10.095    
  13.061      14.448      15.654      16.617      17.286      17.630      17.631      17.289      16.620      15.658    
  14.450      13.061      11.573      10.075      8.6454      7.3345      6.1761      5.1841      4.3566      3.6820    
  3.1446      2.7278      2.4163      2.1960      2.0557      1.9872      1.9866      2.0546      2.1955      2.4171    
  2.7294      3.1452      3.6803      4.3525      5.1795      6.1732      7.3349      8.6486      10.080      11.575    
  14.562      15.783      16.770      17.495      17.936      18.084      17.936      17.495      16.773      15.787    
  14.567      13.159      11.635      10.089      8.6177      7.2786      6.1064      5.1137      4.2957      3.6376    
  3.1210      2.7277      2.4414      2.2480      2.1362      2.0992      2.1352      2.2471      2.4419      2.7294    
  3.1223      3.6370      4.2928      5.1104      6.1053      7.2814      8.6235      10.096      11.638      13.158    
  15.721      16.638      17.312      17.752      17.968      17.967      17.750      17.311      16.639      15.724    
  14.568      13.199      11.681      10.113      8.6115      7.2512      6.0699      5.0802      4.2754      3.6374    
  3.1449      2.7778      2.5187      2.3541      2.2742      2.2741      2.3539      2.5188      2.7782      3.1452    
  3.6370      4.2743      5.0795      6.0708      7.2546      8.6165      10.118      11.683      13.198      14.565    
  16.248      16.751      17.058      17.219      17.269      17.220      17.058      16.751      16.248      15.499    
  14.474      13.188      11.704      10.134      8.6136      7.2410      6.0580      5.0786      4.2936      3.6819    
  3.2183      2.8808      2.6518      2.5196      2.4767      2.5205      2.6528      2.8809      3.2172      3.6803    
  4.2928      5.0795      6.0605      7.2439      8.6157      10.134      11.703      13.186      14.472      15.498    
  15.921      15.950      15.898      15.849      15.851      15.903      15.956      15.923      15.700      15.189    
  14.337      13.152      11.710      10.145      8.6163      7.2416      6.0681      5.1094      4.3537      3.7754    
  3.3461      3.0421      2.8474      2.7527      2.7535      2.8491      3.0430      3.3453      3.7735      4.3525    
  5.1104      6.0708      7.2439      8.6159      10.141      11.705      13.148      14.336      15.190      15.700    
  14.632      14.198      13.865      13.743      13.872      14.208      14.641      15.008      15.140      14.900    
  14.220      13.122      11.711      10.146      8.6167      7.2529      6.1031      5.1787      4.4629      3.9256    
  3.5357      3.2699      3.1147      3.0640      3.1158      3.2711      3.5357      3.9246      4.4621      5.1795    
  6.1053      7.2546      8.6157      10.141      11.704      13.117      14.218      14.901      15.141      15.004    
  12.431      11.626      11.169      11.173      11.636      12.443      13.388      14.225      14.724      14.725    
  14.173      13.121      11.710      10.137      8.6170      7.2802      6.1717      5.2966      4.6316      4.1426    
  3.7974      3.5751      3.4657      3.4659      3.5754      3.7974      4.1422      4.6315      5.2972      6.1732    
  7.2814      8.6165      10.134      11.705      13.117      14.172      14.726      14.725      14.222      13.380    
  9.5531      8.5574      8.2006      8.5626      9.5611      10.973      12.486      13.773      14.569      14.724    
  14.216      13.148      11.704      10.119      8.6240      7.3346      6.2869      5.4765      4.8728      4.4387    
  4.1438      3.9710      3.9135      3.9704      4.1430      4.4381      4.8726      5.4768      6.2875      7.3349    
  8.6235      10.118      11.703      13.148      14.218      14.726      14.571      13.772      12.481      10.965    
  6.4160      5.4822      5.4830      6.4181      8.0864      10.136      12.157      13.772      14.722      14.896    
  14.331      13.183      11.683      10.097      8.6505      7.4326      6.4660      5.7344      5.2011      4.8283    
  4.5894      4.4714      4.4707      4.5879      4.8270      5.2008      5.7348      6.4662      7.4316      8.6486    
  10.096      11.683      13.186      14.336      14.901      14.725      13.772      12.154      10.133      8.0830    
  3.5679      2.9784      3.5662      5.2056      7.5519      10.136      12.485      14.224      15.138      15.185    
  14.467      13.196      11.639      10.083      8.7157      7.5956      6.7292      6.0881      5.6326      5.3265    
  5.1483      5.0888      5.1469      5.3250      5.6324      6.0894      6.7303      7.5949      8.7127      10.080    
  11.638      13.198      14.472      15.190      15.141      14.222      12.481      10.133      7.5509      5.2070    
  1.5709      1.5693      2.8741      5.2056      8.0861      10.972      13.387      15.008      15.699      15.494    
  14.561      13.158      11.579      10.099      8.8449      7.8484      7.0976      6.5560      6.1827      5.9467    
  5.8312      5.8306      5.9457      6.1828      6.5578      7.1002      7.8495      8.8431      10.095      11.575    
  13.158      14.565      15.498      15.700      15.004      13.380      10.965      8.0830      5.2070      2.8773    
  1.5687      2.9773      5.4827      8.5609      11.633      14.206      15.958      16.756      16.640      15.783    
  14.447      12.935      11.526      10.342      9.4092      8.7143      8.2191      7.8828      7.6732      7.5721    
  7.5721      7.6733      7.8833      8.2202      8.7157      9.4105      10.342      11.526      12.936      14.448    
  15.783      16.638      16.751      15.950      14.198      11.626      8.5574      5.4822      2.9784      1.5693    
  2.9773      4.9717      7.8004      10.894      13.711      15.850      17.094      17.407      16.901      15.800    
  14.388      12.968      11.735      10.742      9.9895      9.4455      9.0694      8.8240      8.6852      8.6400    
  8.6853      8.8239      9.0687      9.4444      9.9887      10.743      11.737      12.970      14.389      15.799    
  16.898      17.402      17.089      15.845      13.707      10.892      7.7986      4.9703      2.9766      2.2571    
  5.4827      7.8004      10.626      13.419      15.729      17.271      17.933      17.762      16.927      15.684    
  14.321      13.089      12.075      11.294      10.722      10.321      10.051      9.8847      9.8052      9.8056    
  9.8852      10.050      10.318      10.718      11.291      12.075      13.091      14.323      15.683      16.925    
  17.758      17.931      17.271      15.732      13.422      10.628      7.7999      5.4811      4.1710      4.1719    
  8.5609      10.894      13.419      15.679      17.343      18.238      18.344      17.773      16.736      15.498    
  14.319      13.331      12.559      11.987      11.582      11.303      11.120      11.016      10.982      11.017    
  11.122      11.302      11.578      11.982      12.555      13.331      14.321      15.499      16.735      17.770    
  18.342      18.240      17.350      15.688      13.426      10.898      8.5608      6.9035      6.3038      6.9045    
  11.633      13.711      15.729      17.343      18.337      18.636      18.296      17.479      16.409      15.340    
  14.427      13.706      13.171      12.788      12.517      12.323      12.194      12.129      12.131      12.198    
  12.326      12.516      12.784      13.166      13.704      14.427      15.341      16.410      17.478      18.295    
  18.636      18.340      17.350      15.737      13.716      11.635      9.9120      8.9333      8.9336      9.9118    
  14.206      15.850      17.271      18.238      18.636      18.473      17.862      16.987      16.072      15.281    
  14.657      14.196      13.865      13.616      13.417      13.260      13.156      13.121      13.160      13.265    
  13.421      13.618      13.864      14.194      14.655      15.281      16.073      16.988      17.862      18.473    
  18.635      18.238      17.272      15.851      14.208      12.663      11.557      11.155      11.556      12.662    
  15.958      17.094      17.933      18.344      18.296      17.862      17.185      16.455      15.826      15.340    
  14.992      14.742      14.536      14.340      14.154      14.003      13.917      13.919      14.007      14.160    
  14.345      14.539      14.743      14.991      15.337      15.824      16.455      17.187      17.864      18.296    
  18.340      17.928      17.089      15.955      14.746      13.728      13.145      13.144      13.727      14.747    
  16.756      17.407      17.762      17.773      17.479      16.987      16.455      16.013      15.697      15.498    
  15.362      15.226      15.053      14.849      14.647      14.497      14.442      14.498      14.650      14.854    
  15.060      15.231      15.364      15.496      15.693      16.010      16.455      16.989      17.481      17.773    
  17.758      17.401      16.751      15.937      15.144      14.566      14.354      14.565      15.144      15.940    
  16.640      16.901      16.927      16.736      16.409      16.072      15.826      15.697      15.671      15.684    
  15.654      15.538      15.336      15.092      14.872      14.742      14.742      14.874      15.097      15.343    
  15.544      15.659      15.685      15.669      15.694      15.823      16.071      16.411      16.739      16.929    
  16.901      16.639      16.196      15.679      15.225      14.960      14.959      15.224      15.678      16.196    
  15.783      15.800      15.684      15.498      15.340      15.281      15.340      15.498      15.684      15.800    
  15.783      15.624      15.365      15.084      14.869      14.790      14.871      15.088      15.371      15.630    
  15.788      15.803      15.685      15.497      15.338      15.279      15.338      15.497      15.685      15.803    
  15.788      15.630      15.371      15.088      14.871      14.790      14.869      15.084      15.365      15.624    
  14.447      14.388      14.321      14.319      14.427      14.657      14.992      15.362      15.654      15.783    
  15.719      15.494      15.185      14.896      14.724      14.725      14.900      15.189      15.499      15.724    
  15.787      15.658      15.365      14.993      14.656      14.424      14.315      14.319      14.388      14.451    
  14.451      14.377      14.254      14.129      14.050      14.048      14.125      14.248      14.371      14.445    
  12.935      12.968      13.089      13.331      13.706      14.196      14.742      15.226      15.538      15.624    
  15.494      15.214      14.890      14.637      14.542      14.639      14.893      15.217      15.498      15.629    
  15.542      15.230      14.745      14.198      13.706      13.328      13.085      12.964      12.933      12.942    
  12.945      12.921      12.879      12.839      12.822      12.837      12.876      12.919      12.943      12.942    
  11.526      11.735      12.075      12.559      13.171      13.865      14.536      15.053      15.336      15.365    
  15.185      14.890      14.600      14.422      14.422      14.599      14.891      15.187      15.369      15.341    
  15.058      14.539      13.867      13.171      12.558      12.074      11.733      11.522      11.412      11.366    
  11.349      11.340      11.331      11.324      11.324      11.332      11.343      11.354      11.370      11.416    
  10.342      10.742      11.294      11.987      12.788      13.616      14.340      14.849      15.092      15.084    
  14.896      14.637      14.422      14.338      14.420      14.634      14.895      15.086      15.096      14.853    
  14.343      13.617      12.787      11.987      11.294      10.744      10.342      10.074      9.9091      9.8169    
  9.7697      9.7479      9.7395      9.7386      9.7433      9.7544      9.7771      9.8231      9.9129      10.075    
  9.4092      9.9895      10.722      11.582      12.517      13.417      14.154      14.647      14.872      14.869    
  14.724      14.542      14.422      14.420      14.537      14.719      14.867      14.874      14.651      14.159    
  13.419      12.516      11.580      10.721      9.9910      9.4133      8.9847      8.6856      8.4887      8.3666    
  8.2960      8.2595      8.2452      8.2471      8.2643      8.3016      8.3705      8.4893      8.6827      8.9799    
  8.7143      9.4455      10.321      11.303      12.323      13.260      14.003      14.497      14.742      14.790    
  14.725      14.639      14.599      14.634      14.719      14.785      14.742      14.501      14.009      13.264    
  12.324      11.301      10.317      9.4441      8.7164      8.1432      7.7140      7.4071      7.1974      7.0613    
  6.9793      6.9366      6.9238      6.9373      6.9798      7.0604      7.1940      7.4013      7.7074      8.1380    
  8.2191      9.0694      10.051      11.120      12.194      13.156      13.917      14.442      14.742      14.871    
  14.900      14.893      14.891      14.895      14.867      14.742      14.446      13.925      13.163      12.198    
  11.120      10.048      9.0658      8.2173      7.5216      6.9764      6.5661      6.2688      6.0624      5.9268    
  5.8458      5.8077      5.8065      5.8425      5.9221      6.0570      6.2634      6.5614      6.9733      7.5208    
  7.8828      8.8240      9.8847      11.016      12.129      13.121      13.919      14.498      14.874      15.088    
  15.189      15.217      15.187      15.086      14.874      14.501      13.925      13.128      12.135      11.018    
  9.8842      8.8216      7.8797      7.0845      6.4409      5.9387      5.5600      5.2846      5.0934      4.9695    
  4.9000      4.8767      4.8971      4.9650      5.0890      5.2819      5.5593      5.9398      6.4432      7.0875    
  7.6732      8.6852      9.8052      10.982      12.131      13.160      14.007      14.650      15.097      15.371    
  15.499      15.498      15.369      15.096      14.651      14.009      13.163      12.135      10.985      9.8069    
  8.6856      7.6724      6.7982      6.0732      5.4922      5.0408      4.7009      4.4548      4.2862      4.1816    
  4.1313      4.1305      4.1798      4.2850      4.4556      4.7041      5.0455      5.4972      6.0771      6.8005    
  7.5721      8.6400      9.8056      11.017      12.198      13.265      14.160      14.854      15.343      15.630    
  15.724      15.629      15.341      14.853      14.159      13.264      12.198      11.018      9.8069      8.6420    
  7.5743      6.6369      5.8444      5.1961      4.6806      4.2822      3.9841      3.7707      3.6286      3.5476    
  3.5212      3.5476      3.6295      3.7733      3.9886      4.2878      4.6856      5.1991      5.8451      6.6356    
  7.5721      8.6853      9.8852      11.122      12.326      13.421      14.345      15.060      15.544      15.788    
  15.787      15.542      15.058      14.343      13.419      12.324      11.120      9.8842      8.6856      7.5743    
  6.5848      5.7349      5.0273      4.4542      4.0021      3.6553      3.3987      3.2188      3.1048      3.0496    
  3.0497      3.1054      3.2204      3.4016      3.6588      4.0047      4.4547      5.0255      5.7315      6.5813    
  7.6733      8.8239      10.050      11.302      12.516      13.618      14.539      15.231      15.659      15.803    