Si DFT unoccupied states                
   5.4299999999999997     
     0.500000    0.500000    0.000000
     0.000000    0.500000    0.500000
     0.500000    0.000000    0.500000
   Si
     2
Direct
   0.000000  0.000000  0.000000
   0.250000  0.250000  0.250000

   40   40   40
 0.85122837482E+00 0.15686544186E+01 0.35660383458E+01 0.64177608168E+01 0.95597579197E+01
 0.12441026273E+02 0.14641333042E+02 0.15926232591E+02 0.16249173010E+02 0.15719454000E+02
 0.14561661383E+02 0.13062318264E+02 0.11527667229E+02 0.10173812849E+02 0.90671193988E+01
 0.82152094648E+01 0.75905835542E+01 0.71524087613E+01 0.68626421287E+01 0.66964613209E+01
 0.66418019300E+01 0.66961559193E+01 0.68629006225E+01 0.71540269349E+01 0.75932666164E+01
 0.82175605718E+01 0.90676955060E+01 0.10172376698E+02 0.11525546668E+02 0.13061349991E+02
 0.14562486487E+02 0.15720588209E+02 0.16247890345E+02 0.15920636834E+02 0.14632045927E+02
 0.12431194718E+02 0.95530699438E+01 0.64159887139E+01 0.35678942041E+01 0.15709043028E+01
 0.15686544186E+01 0.29773228045E+01 0.54826867966E+01 0.85608677817E+01 0.11633036739E+02
 0.14206372196E+02 0.15958153706E+02 0.16756421713E+02 0.16640033587E+02 0.15783032328E+02
 0.14447198915E+02 0.12935406002E+02 0.11525736516E+02 0.10341538806E+02 0.94091874012E+01
 0.87142606568E+01 0.82191248734E+01 0.78827808105E+01 0.76732455101E+01 0.75721488618E+01
 0.75720965882E+01 0.76733057610E+01 0.78832854202E+01 0.82202399090E+01 0.87156808125E+01
 0.94104583119E+01 0.10342349221E+02 0.11526284389E+02 0.12935927519E+02 0.14447639440E+02
 0.15782584851E+02 0.16637560709E+02 0.16751024562E+02 0.15950344377E+02 0.14197901430E+02
 0.11626200409E+02 0.85574227252E+01 0.54822230498E+01 0.29784179751E+01 0.15693412513E+01
 0.35660383458E+01 0.54826867966E+01 0.82006304348E+01 0.11170190235E+02 0.13866765909E+02
 0.15900984921E+02 0.17062230582E+02 0.17315420327E+02 0.16772458278E+02 0.15654209890E+02
 0.14242074289E+02 0.12832048669E+02 0.11611906590E+02 0.10630614359E+02 0.98875179796E+01
 0.93509930682E+01 0.89800432825E+01 0.87376242980E+01 0.86001228079E+01 0.85551733628E+01
 0.85997958416E+01 0.87368463983E+01 0.89787802911E+01 0.93496606774E+01 0.98868046894E+01
 0.10631116552E+02 0.11613657342E+02 0.12834379518E+02 0.14243768822E+02 0.15654157718E+02
 0.16770244466E+02 0.17311664717E+02 0.17058000941E+02 0.15897508095E+02 0.13864599466E+02
 0.11169304796E+02 0.82006348753E+01 0.54829576589E+01 0.35662383005E+01 0.28741024538E+01
 0.64177608168E+01 0.85608677817E+01 0.11170190235E+02 0.13739524125E+02 0.15846182786E+02
 0.17218710292E+02 0.17753307863E+02 0.17496734071E+02 0.16617376672E+02 0.15362057606E+02
 0.14014607805E+02 0.12806576838E+02 0.11816522254E+02 0.11055626437E+02 0.10500404955E+02
 0.10111611241E+02 0.98503490112E+01 0.96885465943E+01 0.96106809733E+01 0.96105264281E+01
 0.96877111949E+01 0.98481469673E+01 0.10107983611E+02 0.10496402082E+02 0.11053010392E+02
 0.11816583139E+02 0.12808950551E+02 0.14017526742E+02 0.15363543889E+02 0.16616588961E+02
 0.17494500385E+02 0.17751685021E+02 0.17219243649E+02 0.15849044126E+02 0.13743413405E+02
 0.11173418348E+02 0.85625702879E+01 0.64181253666E+01 0.52056407539E+01 0.52056493210E+01
 0.95597579197E+01 0.11633036739E+02 0.13866765909E+02 0.15846182786E+02 0.17265835355E+02
 0.17967370405E+02 0.17936906670E+02 0.17286761011E+02 0.16220042155E+02 0.14992045178E+02
 0.13847106705E+02 0.12893700594E+02 0.12152317883E+02 0.11607564724E+02 0.11223097248E+02
 0.10960049864E+02 0.10787700992E+02 0.10688970009E+02 0.10656692281E+02 0.10689180220E+02
 0.10786884215E+02 0.10956998877E+02 0.11217933562E+02 0.11601982487E+02 0.12148696458E+02
 0.12893517116E+02 0.13849689220E+02 0.14995083044E+02 0.16221521438E+02 0.17286316770E+02
 0.17935945051E+02 0.17967972745E+02 0.17269112191E+02 0.15851278186E+02 0.13871867726E+02
 0.11636499645E+02 0.95611277364E+01 0.80863777723E+01 0.75518843431E+01 0.80861199269E+01
 0.12441026273E+02 0.14206372196E+02 0.15900984921E+02 0.17218710292E+02 0.17967370405E+02
 0.18084503739E+02 0.17629600434E+02 0.16758964137E+02 0.15690449510E+02 0.14657371125E+02
 0.13786485744E+02 0.13105698816E+02 0.12605449827E+02 0.12252727055E+02 0.12007862426E+02
 0.11837445837E+02 0.11725063643E+02 0.11668334664E+02 0.11669092367E+02 0.11726467944E+02
 0.11837519626E+02 0.12005231809E+02 0.12247683611E+02 0.12600059142E+02 0.13102170169E+02
 0.13786122533E+02 0.14659733065E+02 0.15693612496E+02 0.16761079309E+02 0.17630078493E+02
 0.18083968517E+02 0.17967044901E+02 0.17219553314E+02 0.15902785753E+02 0.14208483139E+02
 0.12442760402E+02 0.10973110367E+02 0.10136477515E+02 0.10136160808E+02 0.10972078626E+02
 0.14641333042E+02 0.15958153706E+02 0.17062230582E+02 0.17753307863E+02 0.17936906670E+02
 0.17629600434E+02 0.16942706502E+02 0.16054624856E+02 0.15173110928E+02 0.14426971736E+02
 0.13847106747E+02 0.13427415043E+02 0.13136141322E+02 0.12929316187E+02 0.12771167497E+02
 0.12649396218E+02 0.12569031424E+02 0.12541366956E+02 0.12570944631E+02 0.12652092939E+02
 0.12773018206E+02 0.12928873901E+02 0.13133229028E+02 0.13423371524E+02 0.13843685985E+02
 0.14425615023E+02 0.15174568770E+02 0.16057910195E+02 0.16945920907E+02 0.17630894982E+02
 0.17935560867E+02 0.17749791250E+02 0.17058419333E+02 0.15955605655E+02 0.14640703649E+02
 0.13387812752E+02 0.12485590780E+02 0.12156515683E+02 0.12484699674E+02 0.13387034835E+02
 0.15926232591E+02 0.16756421713E+02 0.17315420327E+02 0.17496734071E+02 0.17286761011E+02
 0.16758964137E+02 0.16054624856E+02 0.15350418140E+02 0.14762245276E+02 0.14319163877E+02
 0.14014607846E+02 0.13814533876E+02 0.13667523190E+02 0.13536388444E+02 0.13412226840E+02
 0.13308895419E+02 0.13249390625E+02 0.13250390867E+02 0.13311648428E+02 0.13416333878E+02
 0.13540645469E+02 0.13670132938E+02 0.13813973113E+02 0.14011289791E+02 0.14314856348E+02
 0.14759286793E+02 0.15350805222E+02 0.16058047607E+02 0.16763096857E+02 0.17288651052E+02
 0.17495017344E+02 0.17310737856E+02 0.16751321018E+02 0.15923281175E+02 0.15008211603E+02
 0.14224847151E+02 0.13772811808E+02 0.13772137058E+02 0.14223721835E+02 0.15008485765E+02
 0.16249173010E+02 0.16640033587E+02 0.16772458278E+02 0.16617376672E+02 0.16220042155E+02
 0.15690449510E+02 0.15173110928E+02 0.14762245276E+02 0.14481473765E+02 0.14321452974E+02
 0.14242074316E+02 0.14182389394E+02 0.14100296961E+02 0.13988213586E+02 0.13867430143E+02
 0.13773737460E+02 0.13738964166E+02 0.13775831778E+02 0.13871583916E+02 0.13993997095E+02
 0.14106312588E+02 0.14186450139E+02 0.14242232541E+02 0.14317998654E+02 0.14476677594E+02
 0.14758622003E+02 0.15172962048E+02 0.15693388019E+02 0.16224256527E+02 0.16620125517E+02
 0.16772933763E+02 0.16638955641E+02 0.16248208848E+02 0.15700003898E+02 0.15140254787E+02
 0.14723763554E+02 0.14569328695E+02 0.14722160655E+02 0.15138372289E+02 0.15699395258E+02
 0.15719454000E+02 0.15783032328E+02 0.15654209890E+02 0.15362057606E+02 0.14992045178E+02
 0.14657371125E+02 0.14426971736E+02 0.14319163877E+02 0.14321452974E+02 0.14388365595E+02
 0.14447198949E+02 0.14445383692E+02 0.14370743996E+02 0.14248219774E+02 0.14124564456E+02
 0.14048300597E+02 0.14049707544E+02 0.14128579319E+02 0.14254144874E+02 0.14377412900E+02
 0.14451222091E+02 0.14450794214E+02 0.14388492805E+02 0.14318777527E+02 0.14315485731E+02
 0.14423801339E+02 0.14656406430E+02 0.14993198672E+02 0.15365055204E+02 0.15658024325E+02
 0.15787061646E+02 0.15724030336E+02 0.15498643723E+02 0.15189451764E+02 0.14899535596E+02
 0.14725009808E+02 0.14723798009E+02 0.14896286162E+02 0.15185017652E+02 0.15493951523E+02
 0.14561661383E+02 0.14447198915E+02 0.14242074289E+02 0.14014607805E+02 0.13847106705E+02
 0.13786485744E+02 0.13847106747E+02 0.14014607846E+02 0.14242074316E+02 0.14447198949E+02
 0.14561661422E+02 0.14561373103E+02 0.14467124842E+02 0.14331186784E+02 0.14216411992E+02
 0.14173009581E+02 0.14219662806E+02 0.14336866697E+02 0.14473925604E+02 0.14567789764E+02
 0.14566670460E+02 0.14450361049E+02 0.14242858694E+02 0.14013536302E+02 0.13845019509E+02
 0.13783746472E+02 0.13845019531E+02 0.14013536312E+02 0.14242858691E+02 0.14450361063E+02
 0.14566670488E+02 0.14567789768E+02 0.14473925580E+02 0.14336866677E+02 0.14219662790E+02
 0.14173009543E+02 0.14216411938E+02 0.14331186755E+02 0.14467124837E+02 0.14561373084E+02
 0.13062318264E+02 0.12935406002E+02 0.12832048669E+02 0.12806576838E+02 0.12893700594E+02
 0.13105698816E+02 0.13427415043E+02 0.13814533876E+02 0.14182389394E+02 0.14445383692E+02
 0.14561373103E+02 0.14538390870E+02 0.14425090174E+02 0.14291619364E+02 0.14205326890E+02
 0.14206806939E+02 0.14295874115E+02 0.14431347148E+02 0.14545487444E+02 0.14567865684E+02
 0.14450336464E+02 0.14185399869E+02 0.13815285853E+02 0.13426750671E+02 0.13104210683E+02
 0.12891510783E+02 0.12804096905E+02 0.12829431495E+02 0.12933001640E+02 0.13061394366E+02
 0.13158910877E+02 0.13199023181E+02 0.13187662353E+02 0.13151562836E+02 0.13122303159E+02
 0.13120801831E+02 0.13147836132E+02 0.13183267268E+02 0.13195678454E+02 0.13157574681E+02
 0.11527667229E+02 0.11525736516E+02 0.11611906590E+02 0.11816522254E+02 0.12152317883E+02
 0.12605449827E+02 0.13136141322E+02 0.13667523190E+02 0.14100296961E+02 0.14370743996E+02
 0.14467124842E+02 0.14425090174E+02 0.14312024364E+02 0.14204332376E+02 0.14161533841E+02
 0.14206290891E+02 0.14316331982E+02 0.14431613501E+02 0.14474847361E+02 0.14377632822E+02
 0.14104853911E+02 0.13668939779E+02 0.13135071396E+02 0.12603872153E+02 0.12151327666E+02
 0.11816070095E+02 0.11610577499E+02 0.11522601433E+02 0.11522422446E+02 0.11572584321E+02
 0.11634686446E+02 0.11681015931E+02 0.11704062308E+02 0.11710453854E+02 0.11710630308E+02
 0.11709766390E+02 0.11703926356E+02 0.11683028755E+02 0.11639336324E+02 0.11578632768E+02
 0.10173812849E+02 0.10341538806E+02 0.10630614359E+02 0.11055626437E+02 0.11607564724E+02
 0.12252727055E+02 0.12929316187E+02 0.13536388444E+02 0.13988213586E+02 0.14248219774E+02
 0.14331186784E+02 0.14291619364E+02 0.14204332376E+02 0.14139536574E+02 0.14139931307E+02
 0.14206135338E+02 0.14295956431E+02 0.14338175137E+02 0.14256171662E+02 0.13994391919E+02
 0.13538990489E+02 0.12927775779E+02 0.12249332097E+02 0.11605138903E+02 0.11055690248E+02
 0.10632666984E+02 0.10342773797E+02 0.10172056377E+02 0.10093441739E+02 0.10075491301E+02
 0.10089393877E+02 0.10113330751E+02 0.10133544518E+02 0.10144602077E+02 0.10145650333E+02
 0.10136948961E+02 0.10119314328E+02 0.10097220845E+02 0.10083164275E+02 0.10098805136E+02
 0.90671193988E+01 0.94091874012E+01 0.98875179796E+01 0.10500404955E+02 0.11223097248E+02
 0.12007862426E+02 0.12771167497E+02 0.13412226840E+02 0.13867430143E+02 0.14124564456E+02
 0.14216411992E+02 0.14205326890E+02 0.14161533841E+02 0.14139931307E+02 0.14161767226E+02
 0.14207125163E+02 0.14221131242E+02 0.14131827800E+02 0.13874804798E+02 0.13416924444E+02
 0.12771426499E+02 0.12004004971E+02 0.11218389884E+02 0.10497852934E+02 0.98888182264E+01
 0.94135383080E+01 0.90717159816E+01 0.88468155402E+01 0.87136712794E+01 0.86453575510E+01
 0.86176546288E+01 0.86115022587E+01 0.86136038319E+01 0.86162553151E+01 0.86167093134E+01
 0.86170026191E+01 0.86239996035E+01 0.86505358630E+01 0.87157166350E+01 0.88449149557E+01
 0.82152094648E+01 0.87142606568E+01 0.93509930682E+01 0.10111611241E+02 0.10960049864E+02
 0.11837445837E+02 0.12649396218E+02 0.13308895419E+02 0.13773737460E+02 0.14048300597E+02
 0.14173009581E+02 0.14206806939E+02 0.14206290891E+02 0.14206135338E+02 0.14207125163E+02
 0.14175513368E+02 0.14053961874E+02 0.13781386230E+02 0.13315799343E+02 0.12652875217E+02
 0.11836029047E+02 0.10955144978E+02 0.10106428654E+02 0.93487280983E+01 0.87163152162E+01
 0.82207461173E+01 0.78551541223E+01 0.76010371136E+01 0.74352048743E+01 0.73344888817E+01
 0.72785917611E+01 0.72512253222E+01 0.72409561040E+01 0.72416376565E+01 0.72529353935E+01
 0.72802094086E+01 0.73346365049E+01 0.74326024778E+01 0.75956294196E+01 0.78484031264E+01
 0.75905835542E+01 0.82191248734E+01 0.89800432825E+01 0.98503490112E+01 0.10787700992E+02
 0.11725063643E+02 0.12569031424E+02 0.13249390625E+02 0.13738964166E+02 0.14049707544E+02
 0.14219662806E+02 0.14295874115E+02 0.14316331982E+02 0.14295956431E+02 0.14221131242E+02
 0.14053961874E+02 0.13746041571E+02 0.13257432115E+02 0.12575509843E+02 0.11727449493E+02
 0.10785679114E+02 0.98456765047E+01 0.89753840204E+01 0.82170751107E+01 0.75919511559E+01
 0.71017705485E+01 0.67347247517E+01 0.64718400352E+01 0.62922436831E+01 0.61761177382E+01
 0.61064214728E+01 0.60698547877E+01 0.60580067818E+01 0.60680567850E+01 0.61031003529E+01
 0.61716599124E+01 0.62869124004E+01 0.64660434534E+01 0.67291890910E+01 0.70976252582E+01
 0.71524087613E+01 0.78827808105E+01 0.87376242980E+01 0.96885465943E+01 0.10688970009E+02
 0.11668334664E+02 0.12541366956E+02 0.13250390867E+02 0.13775831778E+02 0.14128579319E+02
 0.14336866697E+02 0.14431347148E+02 0.14431613501E+02 0.14338175137E+02 0.14131827800E+02
 0.13781386230E+02 0.13257432115E+02 0.12548301914E+02 0.11673142777E+02 0.10690450055E+02
 0.96871237328E+01 0.87345243558E+01 0.78794130468E+01 0.71497925368E+01 0.65546081468E+01
 0.60881577933E+01 0.57358998738E+01 0.54797661913E+01 0.53014096169E+01 0.51840715582E+01
 0.51137015122E+01 0.50802068452E+01 0.50785667881E+01 0.51094125604E+01 0.51786939884E+01
 0.52965581338E+01 0.54764883669E+01 0.57343554265E+01 0.60881380461E+01 0.65559896714E+01
 0.68626421287E+01 0.76732455101E+01 0.86001228079E+01 0.96106809733E+01 0.10656692281E+02
 0.11669092367E+02 0.12570944631E+02 0.13311648428E+02 0.13871583916E+02 0.14254144874E+02
 0.14473925604E+02 0.14545487444E+02 0.14474847361E+02 0.14256171662E+02 0.13874804798E+02
 0.13315799343E+02 0.12575509843E+02 0.11673142777E+02 0.10659641695E+02 0.96123147234E+01
 0.86003901202E+01 0.76723257043E+01 0.68604098916E+01 0.61791378305E+01 0.56280717473E+01
 0.51967824190E+01 0.48700354862E+01 0.46312858779E+01 0.44647700936E+01 0.43565608650E+01
 0.42957128880E+01 0.42753568021E+01 0.42936318694E+01 0.43536773108E+01 0.44628503756E+01
 0.46316437734E+01 0.48727797096E+01 0.52010737073E+01 0.56325815196E+01 0.61827232199E+01
 0.66964613209E+01 0.75721488618E+01 0.85551733628E+01 0.96105264281E+01 0.10689180220E+02
 0.11726467944E+02 0.12652092939E+02 0.13416333878E+02 0.13993997095E+02 0.14377412900E+02
 0.14567789764E+02 0.14567865684E+02 0.14377632822E+02 0.13994391919E+02 0.13416924444E+02
 0.12652875217E+02 0.11727449493E+02 0.10690450055E+02 0.96123147234E+01 0.85574264825E+01
 0.75742888034E+01 0.66976020162E+01 0.59459168900E+01 0.53232655726E+01 0.48230639282E+01
 0.44327769278E+01 0.41375391501E+01 0.39225557406E+01 0.37743950448E+01 0.36820094182E+01
 0.36376051259E+01 0.36374053812E+01 0.36818824674E+01 0.37754109026E+01 0.39256045296E+01
 0.41425648277E+01 0.44387437507E+01 0.48283106599E+01 0.53264598393E+01 0.59467148981E+01
 0.66418019300E+01 0.75720965882E+01 0.85997958416E+01 0.96877111949E+01 0.10786884215E+02
 0.11837519626E+02 0.12773018206E+02 0.13540645469E+02 0.14106312588E+02 0.14451222091E+02
 0.14566670460E+02 0.14450336464E+02 0.14104853911E+02 0.13538990489E+02 0.12771426499E+02
 0.11836029047E+02 0.10785679114E+02 0.96871237328E+01 0.86003901202E+01 0.75742888034E+01
 0.66451740783E+01 0.58345155286E+01 0.51499908587E+01 0.45885879557E+01 0.41405746074E+01
 0.37928525856E+01 0.35314747736E+01 0.33432641214E+01 0.32170648770E+01 0.31445912075E+01
 0.31209936376E+01 0.31449275824E+01 0.32183291145E+01 0.33460627953E+01 0.35356625532E+01
 0.37973819908E+01 0.41438140531E+01 0.45894099216E+01 0.51482925876E+01 0.58312117443E+01
 0.66961559193E+01 0.76733057610E+01 0.87368463983E+01 0.98481469673E+01 0.10956998877E+02
 0.12005231809E+02 0.12928873901E+02 0.13670132938E+02 0.14186450139E+02 0.14450794214E+02
 0.14450361049E+02 0.14185399869E+02 0.13668939779E+02 0.12927775779E+02 0.12004004971E+02
 0.10955144978E+02 0.98456765047E+01 0.87345243558E+01 0.76723257043E+01 0.66976020162E+01
 0.58345155286E+01 0.50938478333E+01 0.44757250737E+01 0.39731529204E+01 0.35750312735E+01
 0.32685118237E+01 0.30406977396E+01 0.28801057171E+01 0.27777542061E+01 0.27278321396E+01
 0.27277399108E+01 0.27777707820E+01 0.28807765226E+01 0.30421126889E+01 0.32699322845E+01
 0.35751191724E+01 0.39709833249E+01 0.44714061006E+01 0.50887510288E+01 0.58306222700E+01
 0.68629006225E+01 0.78832854202E+01 0.89787802911E+01 0.10107983611E+02 0.11217933562E+02
 0.12247683611E+02 0.13133229028E+02 0.13813973113E+02 0.14242232541E+02 0.14388492805E+02
 0.14242858694E+02 0.13815285853E+02 0.13135071396E+02 0.12249332097E+02 0.11218389884E+02
 0.10106428654E+02 0.89753840204E+01 0.78794130468E+01 0.68604098916E+01 0.59459168900E+01
 0.51499908587E+01 0.44757250737E+01 0.39186463406E+01 0.34695966885E+01 0.31170026850E+01
 0.28485127751E+01 0.26524932826E+01 0.25192315106E+01 0.24417994515E+01 0.24162548256E+01
 0.24414469671E+01 0.25187067533E+01 0.26518332871E+01 0.28473628385E+01 0.31146598550E+01
 0.34656742366E+01 0.39134826065E+01 0.44707229428E+01 0.51468697753E+01 0.59456808033E+01
 0.71540269349E+01 0.82202399090E+01 0.93496606774E+01 0.10496402082E+02 0.11601982487E+02
 0.12600059142E+02 0.13423371524E+02 0.14011289791E+02 0.14317998654E+02 0.14318777527E+02
 0.14013536302E+02 0.13426750671E+02 0.12603872153E+02 0.11605138903E+02 0.10497852934E+02
 0.93487280983E+01 0.82170751107E+01 0.71497925368E+01 0.61791378305E+01 0.53232655726E+01
 0.45885879557E+01 0.39731529204E+01 0.34695966885E+01 0.30675109451E+01 0.27551313116E+01
 0.25208385503E+01 0.23543869499E+01 0.22478457528E+01 0.21959422898E+01 0.21960365322E+01
 0.22479554088E+01 0.23540741312E+01 0.25195936054E+01 0.27526560993E+01 0.30640360778E+01
 0.34658824592E+01 0.39704323465E+01 0.45878834726E+01 0.53249544894E+01 0.61828066343E+01
 0.75932666164E+01 0.87156808125E+01 0.98868046894E+01 0.11053010392E+02 0.12148696458E+02
 0.13102170169E+02 0.13843685985E+02 0.14314856348E+02 0.14476677594E+02 0.14315485731E+02
 0.13845019509E+02 0.13104210683E+02 0.12151327666E+02 0.11055690248E+02 0.98888182264E+01
 0.87163152162E+01 0.75919511559E+01 0.65546081468E+01 0.56280717473E+01 0.48230639282E+01
 0.41405746074E+01 0.35750312735E+01 0.31170026850E+01 0.27551313116E+01 0.24777393669E+01
 0.22740813755E+01 0.21353202868E+01 0.20549650825E+01 0.20289762021E+01 0.20557232101E+01
 0.21361634969E+01 0.22741733622E+01 0.24767104748E+01 0.27534780597E+01 0.31157994154E+01
 0.35754448122E+01 0.41429851225E+01 0.48270313563E+01 0.56324072142E+01 0.65578470017E+01
 0.82175605718E+01 0.94104583119E+01 0.10631116552E+02 0.11816583139E+02 0.12893517116E+02
 0.13786122533E+02 0.14425615023E+02 0.14759286793E+02 0.14758622003E+02 0.14423801339E+02
 0.13783746472E+02 0.12891510783E+02 0.11816070095E+02 0.10632666984E+02 0.94135383080E+01
 0.82207461173E+01 0.71017705485E+01 0.60881577933E+01 0.51967824190E+01 0.44327769278E+01
 0.37928525856E+01 0.32685118237E+01 0.28485127751E+01 0.25208385503E+01 0.22740813755E+01
 0.20984344416E+01 0.19861614672E+01 0.19318065237E+01 0.19322910823E+01 0.19872069128E+01
 0.20991858514E+01 0.22740634375E+01 0.25205229556E+01 0.28490928607E+01 0.32710901955E+01
 0.37973943054E+01 0.44380547688E+01 0.52007933365E+01 0.60893650891E+01 0.71002043405E+01
 0.90676955060E+01 0.10342349221E+02 0.11613657342E+02 0.12808950551E+02 0.13849689220E+02
 0.14659733065E+02 0.15174568770E+02 0.15350805222E+02 0.15172962048E+02 0.14656406430E+02
 0.13845019531E+02 0.12804096905E+02 0.11610577499E+02 0.10342773797E+02 0.90717159816E+01
 0.78551541223E+01 0.67347247517E+01 0.57358998738E+01 0.48700354862E+01 0.41375391501E+01
 0.35314747736E+01 0.30406977396E+01 0.26524932826E+01 0.23543869499E+01 0.21353202868E+01
 0.19861614672E+01 0.18999416349E+01 0.18720202774E+01 0.19004858497E+01 0.19866249369E+01
 0.21351605816E+01 0.23539149595E+01 0.26528499661E+01 0.30430370564E+01 0.35357221208E+01
 0.41421706393E+01 0.48725853660E+01 0.57348068083E+01 0.67303361292E+01 0.78494869550E+01
 0.10172376698E+02 0.11526284389E+02 0.12834379518E+02 0.14017526742E+02 0.14995083044E+02
 0.15693612496E+02 0.16057910195E+02 0.16058047607E+02 0.15693388019E+02 0.14993198672E+02
 0.14013536312E+02 0.12829431495E+02 0.11522601433E+02 0.10172056377E+02 0.88468155402E+01
 0.76010371136E+01 0.64718400352E+01 0.54797661913E+01 0.46312858779E+01 0.39225557406E+01
 0.33432641214E+01 0.28801057171E+01 0.25192315106E+01 0.22478457528E+01 0.20549650825E+01
 0.19318065237E+01 0.18720202774E+01 0.18720945914E+01 0.19318135415E+01 0.20545560945E+01
 0.22470974912E+01 0.25188407796E+01 0.28808931218E+01 0.33452520257E+01 0.39246059785E+01
 0.46314512547E+01 0.54768468922E+01 0.64662265102E+01 0.75948812967E+01 0.88431399148E+01
 0.11525546668E+02 0.12935927519E+02 0.14243768822E+02 0.15363543889E+02 0.16221521438E+02
 0.16761079309E+02 0.16945920907E+02 0.16763096857E+02 0.16224256527E+02 0.15365055204E+02
 0.14242858691E+02 0.12933001640E+02 0.11522422446E+02 0.10093441739E+02 0.87136712794E+01
 0.74352048743E+01 0.62922436831E+01 0.53014096169E+01 0.44647700936E+01 0.37743950448E+01
 0.32170648770E+01 0.27777542061E+01 0.24417994515E+01 0.21959422898E+01 0.20289762021E+01
 0.19322910823E+01 0.19004858497E+01 0.19318135415E+01 0.20283112238E+01 0.21955143755E+01
 0.24418720317E+01 0.27782016311E+01 0.32172458719E+01 0.37734782818E+01 0.44620818464E+01
 0.52972073908E+01 0.62874954863E+01 0.74316352299E+01 0.87127005684E+01 0.10094967364E+02
 0.13061349991E+02 0.14447639440E+02 0.15654157718E+02 0.16616588961E+02 0.17286316770E+02
 0.17630078493E+02 0.17630894982E+02 0.17288651052E+02 0.16620125517E+02 0.15658024325E+02
 0.14450361063E+02 0.13061394366E+02 0.11572584321E+02 0.10075491301E+02 0.86453575510E+01
 0.73344888817E+01 0.61761177382E+01 0.51840715582E+01 0.43565608650E+01 0.36820094182E+01
 0.31445912075E+01 0.27278321396E+01 0.24162548256E+01 0.21960365322E+01 0.20557232101E+01
 0.19872069128E+01 0.19866249369E+01 0.20545560945E+01 0.21955143755E+01 0.24170636969E+01
 0.27293695922E+01 0.31452114063E+01 0.36803193812E+01 0.43525278866E+01 0.51794506692E+01
 0.61731639943E+01 0.73348778361E+01 0.86485819322E+01 0.10079542731E+02 0.11575476889E+02
 0.14562486487E+02 0.15782584851E+02 0.16770244466E+02 0.17494500385E+02 0.17935945051E+02
 0.18083968517E+02 0.17935560867E+02 0.17495017344E+02 0.16772933763E+02 0.15787061646E+02
 0.14566670488E+02 0.13158910877E+02 0.11634686446E+02 0.10089393877E+02 0.86176546288E+01
 0.72785917611E+01 0.61064214728E+01 0.51137015122E+01 0.42957128880E+01 0.36376051259E+01
 0.31209936376E+01 0.27277399108E+01 0.24414469671E+01 0.22479554088E+01 0.21361634969E+01
 0.20991858514E+01 0.21351605816E+01 0.22470974912E+01 0.24418720317E+01 0.27293695922E+01
 0.31223295997E+01 0.36369967232E+01 0.42928475781E+01 0.51103865383E+01 0.61052672941E+01
 0.72814426205E+01 0.86234972101E+01 0.10095543128E+02 0.11637851531E+02 0.13157530540E+02
 0.15720588209E+02 0.16637560709E+02 0.17311664717E+02 0.17751685021E+02 0.17967972745E+02
 0.17967044901E+02 0.17749791250E+02 0.17310737856E+02 0.16638955641E+02 0.15724030336E+02
 0.14567789768E+02 0.13199023181E+02 0.11681015931E+02 0.10113330751E+02 0.86115022587E+01
 0.72512253222E+01 0.60698547877E+01 0.50802068452E+01 0.42753568021E+01 0.36374053812E+01
 0.31449275824E+01 0.27777707820E+01 0.25187067533E+01 0.23540741312E+01 0.22741733622E+01
 0.22740634375E+01 0.23539149595E+01 0.25188407796E+01 0.27782016311E+01 0.31452114063E+01
 0.36369967232E+01 0.42743141755E+01 0.50794856110E+01 0.60707976907E+01 0.72546326954E+01
 0.86165101198E+01 0.10118168139E+02 0.11683240376E+02 0.13197981501E+02 0.14564607864E+02
 0.16247890345E+02 0.16751024562E+02 0.17058000941E+02 0.17219243649E+02 0.17269112191E+02
 0.17219553314E+02 0.17058419333E+02 0.16751321018E+02 0.16248208848E+02 0.15498643723E+02
 0.14473925580E+02 0.13187662353E+02 0.11704062308E+02 0.10133544518E+02 0.86136038319E+01
 0.72409561040E+01 0.60580067818E+01 0.50785667881E+01 0.42936318694E+01 0.36818824674E+01
 0.32183291145E+01 0.28807765226E+01 0.26518332871E+01 0.25195936054E+01 0.24767104748E+01
 0.25205229556E+01 0.26528499661E+01 0.28808931218E+01 0.32172458719E+01 0.36803193812E+01
 0.42928475781E+01 0.50794856110E+01 0.60604897654E+01 0.72439402414E+01 0.86156597237E+01
 0.10134017987E+02 0.11702881758E+02 0.13186048892E+02 0.14472445479E+02 0.15497768125E+02
 0.15920636834E+02 0.15950344377E+02 0.15897508095E+02 0.15849044126E+02 0.15851278186E+02
 0.15902785753E+02 0.15955605655E+02 0.15923281175E+02 0.15700003898E+02 0.15189451764E+02
 0.14336866677E+02 0.13151562836E+02 0.11710453854E+02 0.10144602077E+02 0.86162553151E+01
 0.72416376565E+01 0.60680567850E+01 0.51094125604E+01 0.43536773108E+01 0.37754109026E+01
 0.33460627953E+01 0.30421126889E+01 0.28473628385E+01 0.27526560993E+01 0.27534780597E+01
 0.28490928607E+01 0.30430370564E+01 0.33452520257E+01 0.37734782818E+01 0.43525278866E+01
 0.51103865383E+01 0.60707976907E+01 0.72439402414E+01 0.86159058031E+01 0.10141058124E+02
 0.11705420924E+02 0.13147847604E+02 0.14335768026E+02 0.15190340127E+02 0.15700267044E+02
 0.14632045927E+02 0.14197901430E+02 0.13864599466E+02 0.13743413405E+02 0.13871867726E+02
 0.14208483139E+02 0.14640703649E+02 0.15008211603E+02 0.15140254787E+02 0.14899535596E+02
 0.14219662790E+02 0.13122303159E+02 0.11710630308E+02 0.10145650333E+02 0.86167093134E+01
 0.72529353935E+01 0.61031003529E+01 0.51786939884E+01 0.44628503756E+01 0.39256045296E+01
 0.35356625532E+01 0.32699322845E+01 0.31146598550E+01 0.30640360778E+01 0.31157994154E+01
 0.32710901955E+01 0.35357221208E+01 0.39246059785E+01 0.44620818464E+01 0.51794506692E+01
 0.61052672941E+01 0.72546326954E+01 0.86156597237E+01 0.10141058124E+02 0.11704183708E+02
 0.13117193841E+02 0.14217939947E+02 0.14900693934E+02 0.15140691752E+02 0.15004493558E+02
 0.12431194718E+02 0.11626200409E+02 0.11169304796E+02 0.11173418348E+02 0.11636499645E+02
 0.12442760402E+02 0.13387812752E+02 0.14224847151E+02 0.14723763554E+02 0.14725009808E+02
 0.14173009543E+02 0.13120801831E+02 0.11709766390E+02 0.10136948961E+02 0.86170026191E+01
 0.72802094086E+01 0.61716599124E+01 0.52965581338E+01 0.46316437734E+01 0.41425648277E+01
 0.37973819908E+01 0.35751191724E+01 0.34656742366E+01 0.34658824592E+01 0.35754448122E+01
 0.37973943054E+01 0.41421706393E+01 0.46314512547E+01 0.52972073908E+01 0.61731639943E+01
 0.72814426205E+01 0.86165101198E+01 0.10134017987E+02 0.11705420924E+02 0.13117193841E+02
 0.14171906778E+02 0.14726204799E+02 0.14724517062E+02 0.14221965126E+02 0.13379675797E+02
 0.95530699438E+01 0.85574227252E+01 0.82006348753E+01 0.85625702879E+01 0.95611277364E+01
 0.10973110367E+02 0.12485590780E+02 0.13772811808E+02 0.14569328695E+02 0.14723798009E+02
 0.14216411938E+02 0.13147836132E+02 0.11703926356E+02 0.10119314328E+02 0.86239996035E+01
 0.73346365049E+01 0.62869124004E+01 0.54764883669E+01 0.48727797096E+01 0.44387437507E+01
 0.41438140531E+01 0.39709833249E+01 0.39134826065E+01 0.39704323465E+01 0.41429851225E+01
 0.44380547688E+01 0.48725853660E+01 0.54768468922E+01 0.62874954863E+01 0.73348778361E+01
 0.86234972101E+01 0.10118168139E+02 0.11702881758E+02 0.13147847604E+02 0.14217939947E+02
 0.14726204799E+02 0.14570820986E+02 0.13771583941E+02 0.12480575646E+02 0.10965203667E+02
 0.64159887139E+01 0.54822230498E+01 0.54829576589E+01 0.64181253666E+01 0.80863777723E+01
 0.10136477515E+02 0.12156515683E+02 0.13772137058E+02 0.14722160655E+02 0.14896286162E+02
 0.14331186755E+02 0.13183267268E+02 0.11683028755E+02 0.10097220845E+02 0.86505358630E+01
 0.74326024778E+01 0.64660434534E+01 0.57343554265E+01 0.52010737073E+01 0.48283106599E+01
 0.45894099216E+01 0.44714061006E+01 0.44707229428E+01 0.45878834726E+01 0.48270313563E+01
 0.52007933365E+01 0.57348068083E+01 0.64662265102E+01 0.74316352299E+01 0.86485819322E+01
 0.10095543128E+02 0.11683240376E+02 0.13186048892E+02 0.14335768026E+02 0.14900693934E+02
 0.14724517062E+02 0.13771583941E+02 0.12153618335E+02 0.10132647647E+02 0.80829518366E+01
 0.35678942041E+01 0.29784179751E+01 0.35662383005E+01 0.52056407539E+01 0.75518843431E+01
 0.10136160808E+02 0.12484699674E+02 0.14223721835E+02 0.15138372289E+02 0.15185017652E+02
 0.14467124837E+02 0.13195678454E+02 0.11639336324E+02 0.10083164275E+02 0.87157166350E+01
 0.75956294196E+01 0.67291890910E+01 0.60881380461E+01 0.56325815196E+01 0.53264598393E+01
 0.51482925876E+01 0.50887510288E+01 0.51468697753E+01 0.53249544894E+01 0.56324072142E+01
 0.60893650891E+01 0.67303361292E+01 0.75948812967E+01 0.87127005684E+01 0.10079542731E+02
 0.11637851531E+02 0.13197981501E+02 0.14472445479E+02 0.15190340127E+02 0.15140691752E+02
 0.14221965126E+02 0.12480575646E+02 0.10132647647E+02 0.75509312148E+01 0.52070423200E+01
 0.15709043028E+01 0.15693412513E+01 0.28741024538E+01 0.52056493210E+01 0.80861199269E+01
 0.10972078626E+02 0.13387034835E+02 0.15008485765E+02 0.15699395258E+02 0.15493951523E+02
 0.14561373084E+02 0.13157574681E+02 0.11578632768E+02 0.10098805136E+02 0.88449149557E+01
 0.78484031264E+01 0.70976252582E+01 0.65559896714E+01 0.61827232199E+01 0.59467148981E+01
 0.58312117443E+01 0.58306222700E+01 0.59456808033E+01 0.61828066343E+01 0.65578470017E+01
 0.71002043405E+01 0.78494869550E+01 0.88431399148E+01 0.10094967364E+02 0.11575476889E+02
 0.13157530540E+02 0.14564607864E+02 0.15497768125E+02 0.15700267044E+02 0.15004493558E+02
 0.13379675797E+02 0.10965203667E+02 0.80829518366E+01 0.52070423200E+01 0.28773115527E+01
 0.15686544266E+01 0.29773228320E+01 0.54826868370E+01 0.85608678210E+01 0.11633036778E+02
 0.14206372236E+02 0.15958153730E+02 0.16756421710E+02 0.16640033572E+02 0.15783032323E+02
 0.14447198916E+02 0.12935405998E+02 0.11525736512E+02 0.10341538807E+02 0.94091873936E+01
 0.87142606298E+01 0.82191248416E+01 0.78827807909E+01 0.76732454968E+01 0.75721488452E+01
 0.75720965778E+01 0.76733057662E+01 0.78832854285E+01 0.82202399065E+01 0.87156808073E+01
 0.94104583139E+01 0.10342349219E+02 0.11526284372E+02 0.12935927496E+02 0.14447639424E+02