   2   2   0   0
  0.2001288E+02  0.3839590E-09  0.3839590E-09  0.3839590E-09  0.5000000E-15
   1.0000000000000000E-004
  CAR 
 Si DFT unoccupied states                
     78.56997060    -10.99370637  301      5.20239189      1.00000000
    -10.994  0.0000E+00  0.0000E+00
    -10.695  0.0000E+00  0.0000E+00
    -10.397  0.0000E+00  0.0000E+00
    -10.098  0.0000E+00  0.0000E+00
     -9.800  0.0000E+00  0.0000E+00
     -9.501  0.0000E+00  0.0000E+00
     -9.202  0.0000E+00  0.0000E+00
     -8.904  0.0000E+00  0.0000E+00
     -8.605  0.0000E+00  0.0000E+00
     -8.307  0.0000E+00  0.0000E+00
     -8.008  0.0000E+00  0.0000E+00
     -7.710  0.0000E+00  0.0000E+00
     -7.411  0.0000E+00  0.0000E+00
     -7.113  0.1197E-08  0.3574E-09
     -6.814  0.3098E-01  0.9249E-02
     -6.516  0.2332E+00  0.7889E-01
     -6.217  0.2010E+00  0.1389E+00
     -5.918  0.3618E+00  0.2469E+00
     -5.620  0.5669E+00  0.4161E+00
     -5.321  0.4360E+00  0.5463E+00
     -5.023  0.1330E+00  0.5860E+00
     -4.724  0.8400E+00  0.8368E+00
     -4.426  0.1524E+01  0.1292E+01
     -4.127  0.4579E-01  0.1306E+01
     -3.829  0.7294E+00  0.1523E+01
     -3.530  0.1132E+01  0.1861E+01
     -3.232  0.0000E+00  0.1861E+01
     -2.933  0.5280E-03  0.1861E+01
     -2.634  0.9265E+00  0.2138E+01
     -2.336  0.3375E-02  0.2139E+01
     -2.037  0.8539E-05  0.2139E+01
     -1.739  0.1217E+01  0.2502E+01
     -1.440  0.1512E+01  0.2954E+01
     -1.142  0.6800E-05  0.2954E+01
     -0.843  0.7443E+00  0.3176E+01
     -0.545  0.7443E+00  0.3398E+01
     -0.246  0.2383E+00  0.3469E+01
      0.052  0.1959E+00  0.3528E+01
      0.351  0.2720E-07  0.3528E+01
      0.650  0.7607E+00  0.3755E+01
      0.948  0.3550E+00  0.3861E+01
      1.247  0.9344E+00  0.4140E+01
      1.545  0.2260E+01  0.4815E+01
      1.844  0.1555E+00  0.4861E+01
      2.142  0.7768E+00  0.5093E+01
      2.441  0.1822E+01  0.5637E+01
      2.739  0.1954E+01  0.6220E+01
      3.038  0.1476E+01  0.6661E+01
      3.336  0.1656E+01  0.7156E+01
      3.635  0.1339E+00  0.7196E+01
      3.934  0.1387E+01  0.7610E+01
      4.232  0.3461E+00  0.7713E+01
      4.531  0.8180E+00  0.7957E+01
      4.829  0.5183E-01  0.7973E+01
      5.128  0.9162E-01  0.8000E+01
      5.426  0.0000E+00  0.8000E+01
      5.725  0.2024E-08  0.8000E+01
      6.023  0.3706E+00  0.8111E+01
      6.322  0.6789E+00  0.8313E+01
      6.620  0.1622E+00  0.8362E+01
      6.919  0.8214E+00  0.8607E+01
      7.218  0.1335E+01  0.9006E+01
      7.516  0.6224E+00  0.9192E+01
      7.815  0.8396E+00  0.9442E+01
      8.113  0.2352E+01  0.1014E+02
      8.412  0.7558E+00  0.1037E+02
      8.710  0.2413E+01  0.1109E+02
      9.009  0.1308E+01  0.1148E+02
      9.307  0.2508E+01  0.1223E+02
      9.606  0.1898E+01  0.1280E+02
      9.904  0.1361E+01  0.1320E+02
     10.203  0.6858E+00  0.1341E+02
     10.502  0.3065E+00  0.1350E+02
     10.800  0.3111E+00  0.1359E+02
     11.099  0.4338E+00  0.1372E+02
     11.397  0.1100E+01  0.1405E+02
     11.696  0.1958E+01  0.1464E+02
     11.994  0.8516E+00  0.1489E+02
     12.293  0.1581E+01  0.1536E+02
     12.591  0.4035E+01  0.1657E+02
     12.890  0.8466E+00  0.1682E+02
     13.188  0.8556E+00  0.1707E+02
     13.487  0.2645E+00  0.1715E+02
     13.786  0.1243E-01  0.1716E+02
     14.084  0.4366E+00  0.1729E+02
     14.383  0.2315E+01  0.1798E+02
     14.681  0.1821E+01  0.1852E+02
     14.980  0.6467E+00  0.1872E+02
     15.278  0.8596E+00  0.1897E+02
     15.577  0.7006E+00  0.1918E+02
     15.875  0.3640E+01  0.2027E+02
     16.174  0.9756E+00  0.2056E+02
     16.472  0.4934E+00  0.2071E+02
     16.771  0.1109E+01  0.2104E+02
     17.070  0.2345E+01  0.2174E+02
     17.368  0.2818E+00  0.2182E+02
     17.667  0.1114E+01  0.2215E+02
     17.965  0.2485E+01  0.2290E+02
     18.264  0.2631E+01  0.2368E+02
     18.562  0.1458E+01  0.2412E+02
     18.861  0.1858E+01  0.2467E+02
     19.159  0.9220E+00  0.2495E+02
     19.458  0.2388E+00  0.2502E+02
     19.756  0.8602E+00  0.2528E+02
     20.055  0.1873E+01  0.2583E+02
     20.354  0.9430E+00  0.2612E+02
     20.652  0.1558E+01  0.2658E+02
     20.951  0.1814E+01  0.2712E+02
     21.249  0.2511E+01  0.2787E+02
     21.548  0.1987E+01  0.2847E+02
     21.846  0.2221E+01  0.2913E+02
     22.145  0.1522E+01  0.2958E+02
     22.443  0.1490E+01  0.3003E+02
     22.742  0.6124E+00  0.3021E+02
     23.040  0.1783E+01  0.3074E+02
     23.339  0.1769E+01  0.3127E+02
     23.638  0.3150E+00  0.3137E+02
     23.936  0.2432E+01  0.3209E+02
     24.235  0.2090E+01  0.3272E+02
     24.533  0.5002E+00  0.3287E+02
     24.832  0.1713E+01  0.3338E+02
     25.130  0.2463E+01  0.3411E+02
     25.429  0.8776E+00  0.3438E+02
     25.727  0.3977E+01  0.3556E+02
     26.026  0.1807E+01  0.3610E+02
     26.324  0.1607E+01  0.3658E+02
     26.623  0.9983E+00  0.3688E+02
     26.922  0.2961E+01  0.3776E+02
     27.220  0.2406E+00  0.3784E+02
     27.519  0.1600E+01  0.3831E+02
     27.817  0.1563E+01  0.3878E+02
     28.116  0.2009E+01  0.3938E+02
     28.414  0.1771E+01  0.3991E+02
     28.713  0.1664E+01  0.4041E+02
     29.011  0.1347E+01  0.4081E+02
     29.310  0.2848E+01  0.4166E+02
     29.608  0.4032E+00  0.4178E+02
     29.907  0.1150E+01  0.4212E+02
     30.206  0.1352E+01  0.4252E+02
     30.504  0.1098E+01  0.4285E+02
     30.803  0.1947E+01  0.4343E+02
     31.101  0.8708E+00  0.4369E+02
     31.400  0.1618E+01  0.4418E+02
     31.698  0.2194E+01  0.4483E+02
     31.997  0.3073E+01  0.4575E+02
     32.295  0.1445E+01  0.4618E+02
     32.594  0.2254E+01  0.4685E+02
     32.892  0.2934E+01  0.4773E+02
     33.191  0.1307E+00  0.4777E+02
     33.490  0.6190E+00  0.4795E+02
     33.788  0.2842E+01  0.4880E+02
     34.087  0.6380E+00  0.4899E+02
     34.385  0.1376E+01  0.4940E+02
     34.684  0.2788E+01  0.5024E+02
     34.982  0.2703E+01  0.5104E+02
     35.281  0.2653E+01  0.5183E+02
     35.579  0.2024E+01  0.5244E+02
     35.878  0.1260E+01  0.5281E+02
     36.176  0.1514E+01  0.5327E+02
     36.475  0.1461E+01  0.5370E+02
     36.774  0.1628E+01  0.5419E+02
     37.072  0.2178E+01  0.5484E+02
     37.371  0.3109E+01  0.5577E+02
     37.669  0.3110E+01  0.5670E+02
     37.968  0.2349E+01  0.5740E+02
     38.266  0.5436E+00  0.5756E+02
     38.565  0.1188E+01  0.5791E+02
     38.863  0.1191E+00  0.5795E+02
     39.162  0.4781E+01  0.5938E+02
     39.460  0.1336E+01  0.5978E+02
     39.759  0.2665E+01  0.6057E+02
     40.058  0.7322E+00  0.6079E+02
     40.356  0.5163E+00  0.6095E+02
     40.655  0.2829E+01  0.6179E+02
     40.953  0.1704E+01  0.6230E+02
     41.252  0.1004E+01  0.6260E+02
     41.550  0.1182E+01  0.6295E+02
     41.849  0.1346E+01  0.6335E+02
     42.147  0.2157E+01  0.6400E+02
     42.446  0.3010E+01  0.6490E+02
     42.744  0.1673E+01  0.6540E+02
     43.043  0.2326E+01  0.6609E+02
     43.342  0.2419E+01  0.6681E+02
     43.640  0.4782E+00  0.6695E+02
     43.939  0.1236E+01  0.6732E+02
     44.237  0.2788E+01  0.6816E+02
     44.536  0.2416E+01  0.6888E+02
     44.834  0.1234E+01  0.6925E+02
     45.133  0.1072E+01  0.6957E+02
     45.431  0.2776E+01  0.7039E+02
     45.730  0.4430E+01  0.7172E+02
     46.029  0.1134E+01  0.7206E+02
     46.327  0.1348E+01  0.7246E+02
     46.626  0.1551E+01  0.7292E+02
     46.924  0.1604E+01  0.7340E+02
     47.223  0.8897E+00  0.7367E+02
     47.521  0.3673E+01  0.7476E+02
     47.820  0.3142E+01  0.7570E+02
     48.118  0.1615E+01  0.7618E+02
     48.417  0.2521E+01  0.7694E+02
     48.715  0.1312E+01  0.7733E+02
     49.014  0.1823E+01  0.7787E+02
     49.313  0.4696E+01  0.7927E+02
     49.611  0.6638E+00  0.7947E+02
     49.910  0.1631E+01  0.7996E+02
     50.208  0.3970E+01  0.8114E+02
     50.507  0.9331E+00  0.8142E+02
     50.805  0.1648E+01  0.8191E+02
     51.104  0.2825E+00  0.8200E+02
     51.402  0.3475E+01  0.8304E+02
     51.701  0.2276E+01  0.8372E+02
     51.999  0.9492E+00  0.8400E+02
     52.298  0.3695E+01  0.8510E+02
     52.597  0.1105E+01  0.8543E+02
     52.895  0.2371E+01  0.8614E+02
     53.194  0.2612E+01  0.8692E+02
     53.492  0.3024E+01  0.8782E+02
     53.791  0.3457E+01  0.8886E+02
     54.089  0.3766E+01  0.8998E+02
     54.388  0.6870E+00  0.9019E+02
     54.686  0.9133E+00  0.9046E+02
     54.985  0.1468E+01  0.9090E+02
     55.283  0.1106E+01  0.9123E+02
     55.582  0.3271E+01  0.9220E+02
     55.881  0.3497E+01  0.9325E+02
     56.179  0.2521E+01  0.9400E+02
     56.478  0.2110E+01  0.9463E+02
     56.776  0.1753E+01  0.9515E+02
     57.075  0.1162E+01  0.9550E+02
     57.373  0.9304E-01  0.9553E+02
     57.672  0.6152E+00  0.9571E+02
     57.970  0.2608E+01  0.9649E+02
     58.269  0.1406E+01  0.9691E+02
     58.567  0.2773E+01  0.9774E+02
     58.866  0.4027E+01  0.9894E+02
     59.165  0.1912E+01  0.9951E+02
     59.463  0.1792E+01  0.1000E+03
     59.762  0.1588E+01  0.1005E+03
     60.060  0.2357E+01  0.1012E+03
     60.359  0.2099E+01  0.1019E+03
     60.657  0.3319E+01  0.1028E+03
     60.956  0.2719E+01  0.1037E+03
     61.254  0.4452E+01  0.1050E+03
     61.553  0.3096E+00  0.1051E+03
     61.851  0.1788E+01  0.1056E+03
     62.150  0.1467E+01  0.1060E+03
     62.449  0.1982E+01  0.1066E+03
     62.747  0.3596E+01  0.1077E+03
     63.046  0.2635E+01  0.1085E+03
     63.344  0.3651E+01  0.1096E+03
     63.643  0.1698E+01  0.1101E+03
     63.941  0.4102E+01  0.1113E+03
     64.240  0.2031E+01  0.1119E+03
     64.538  0.1698E+01  0.1124E+03
     64.837  0.4780E+01  0.1139E+03
     65.135  0.2604E+01  0.1146E+03
     65.434  0.1814E+01  0.1152E+03
     65.733  0.1691E+01  0.1157E+03
     66.031  0.2180E+01  0.1163E+03
     66.330  0.4303E+00  0.1165E+03
     66.628  0.1529E+01  0.1169E+03
     66.927  0.1897E+01  0.1175E+03
     67.225  0.2884E+01  0.1183E+03
     67.524  0.4343E+01  0.1196E+03
     67.822  0.3261E+01  0.1206E+03
     68.121  0.7396E+00  0.1208E+03
     68.419  0.2489E+01  0.1216E+03
     68.718  0.8624E+00  0.1218E+03
     69.017  0.2294E+01  0.1225E+03
     69.315  0.6284E+01  0.1244E+03
     69.614  0.3396E+01  0.1254E+03
     69.912  0.9939E+00  0.1257E+03
     70.211  0.1566E+01  0.1262E+03
     70.509  0.2180E+01  0.1268E+03
     70.808  0.2212E+01  0.1275E+03
     71.106  0.8362E+00  0.1277E+03
     71.405  0.7561E+00  0.1280E+03
     71.703  0.1748E-01  0.1280E+03
     72.002  0.0000E+00  0.1280E+03
     72.301  0.0000E+00  0.1280E+03
     72.599  0.0000E+00  0.1280E+03
     72.898  0.0000E+00  0.1280E+03
     73.196  0.0000E+00  0.1280E+03
     73.495  0.0000E+00  0.1280E+03
     73.793  0.0000E+00  0.1280E+03
     74.092  0.0000E+00  0.1280E+03
     74.390  0.9976E-04  0.1280E+03
     74.689  0.9294E-01  0.1280E+03
     74.987  0.0000E+00  0.1280E+03
     75.286  0.0000E+00  0.1280E+03
     75.585  0.0000E+00  0.1280E+03
     75.883  0.0000E+00  0.1280E+03
     76.182  0.0000E+00  0.1280E+03
     76.480  0.0000E+00  0.1280E+03
     76.779  0.0000E+00  0.1280E+03
     77.077  0.0000E+00  0.1280E+03
     77.376  0.0000E+00  0.1280E+03
     77.674  0.0000E+00  0.1280E+03
     77.973  0.0000E+00  0.1280E+03
     78.271  0.0000E+00  0.1280E+03
     78.570  0.0000E+00  0.1280E+03
