       N       E                     dE             d eps       ncg     rms          rms(c)
DIA:   1    -0.110047220578E+02   -0.11005E+02    0.00000E+00     0   0.000E+00
   1 F= -.11004722E+02 E0= -.11004722E+02  d E =-.198937E-18
 imaginary and real dielectric function
