<?xml version="1.0" encoding="ISO-8859-1"?>
<modeling>
 <generator>
  <i name="program" type="string">vasp </i>
  <i name="version" type="string">6.5.0  </i>
  <i name="subversion" type="string">16Dec24 (build Feb 18 2025 08:57:40) complex                          parallel </i>
  <i name="platform" type="string">LinuxGNU </i>
  <i name="date" type="string">2025 05 31 </i>
  <i name="time" type="string">17:13:22 </i>
 </generator>
 <incar>
  <i type="string" name="SYSTEM">Si DFT unoccupied states</i>
  <i type="string" name="ALGO">Exact</i>
  <i type="int" name="NELM">     1</i>
  <i name="ENCUT">    400.00000000</i>
  <i type="int" name="NBANDS">    64</i>
  <i type="int" name="ISMEAR">     0</i>
  <i name="SIGMA">      0.05000000</i>
  <i type="logical" name="LOPTICS"> T  </i>
 </incar>
 <primitive_cell>
  <structure name="primitive_cell" >
   <crystal>
    <varray name="basis" >
     <v>       2.71500000       2.71500000       0.00000000 </v>
     <v>       0.00000000       2.71500000       2.71500000 </v>
     <v>       2.71500000       0.00000000       2.71500000 </v>
    </varray>
    <i name="volume">     40.02575175 </i>
    <varray name="rec_basis" >
     <v>       0.18416206       0.18416206      -0.18416206 </v>
     <v>      -0.18416206       0.18416206       0.18416206 </v>
     <v>       0.18416206      -0.18416206       0.18416206 </v>
    </varray>
   </crystal>
   <varray name="positions" >
    <v>       0.00000000       0.00000000       0.00000000 </v>
    <v>       0.25000000       0.25000000       0.25000000 </v>
   </varray>
  </structure>
  <varray name="primitive_index" >
   <v type="int" >        1 </v>
   <v type="int" >        2 </v>
  </varray>
 </primitive_cell>
 <kpoints>
  <generation param="Gamma">
   <v type="int" name="divisions">       6        6        6 </v>
   <v name="usershift">      0.00000000       0.00000000       0.00000000 </v>
   <v name="genvec1">      0.16666667       0.00000000       0.00000000 </v>
   <v name="genvec2">      0.00000000       0.16666667      -0.00000000 </v>
   <v name="genvec3">     -0.00000000      -0.00000000       0.16666667 </v>
   <v name="shift">      0.00000000       0.00000000       0.00000000 </v>
  </generation>
  <varray name="kpointlist" >
   <v>       0.00000000       0.00000000       0.00000000 </v>
   <v>       0.16666667       0.00000000       0.00000000 </v>
   <v>       0.33333333       0.00000000       0.00000000 </v>
   <v>       0.50000000       0.00000000       0.00000000 </v>
   <v>       0.16666667       0.16666667       0.00000000 </v>
   <v>       0.33333333       0.16666667       0.00000000 </v>
   <v>       0.50000000       0.16666667       0.00000000 </v>
   <v>      -0.33333333       0.16666667       0.00000000 </v>
   <v>      -0.16666667       0.16666667       0.00000000 </v>
   <v>       0.33333333       0.33333333       0.00000000 </v>
   <v>       0.50000000       0.33333333       0.00000000 </v>
   <v>      -0.33333333       0.33333333       0.00000000 </v>
   <v>       0.50000000       0.50000000       0.00000000 </v>
   <v>       0.50000000       0.33333333       0.16666667 </v>
   <v>      -0.33333333       0.33333333       0.16666667 </v>
   <v>      -0.33333333       0.50000000       0.16666667 </v>
  </varray>
  <varray name="weights" >
   <v>       0.00462963 </v>
   <v>       0.03703704 </v>
   <v>       0.03703704 </v>
   <v>       0.01851852 </v>
   <v>       0.02777778 </v>
   <v>       0.11111111 </v>
   <v>       0.11111111 </v>
   <v>       0.11111111 </v>
   <v>       0.05555556 </v>
   <v>       0.02777778 </v>
   <v>       0.11111111 </v>
   <v>       0.05555556 </v>
   <v>       0.01388889 </v>
   <v>       0.11111111 </v>
   <v>       0.11111111 </v>
   <v>       0.05555556 </v>
  </varray>
 </kpoints>
 <parameters>
  <separator name="general" >
   <i type="string" name="SYSTEM">Si DFT unoccupied states</i>
   <i type="logical" name="LCOMPAT"> F  </i>
  </separator>
  <separator name="electronic" >
   <i type="string" name="PREC">normal</i>
   <i name="ENMAX">    400.00000000</i>
   <i name="ENAUG">    412.95200000</i>
   <i name="EDIFF">      0.00010000</i>
   <i type="int" name="IALGO">    90</i>
   <i type="int" name="IWAVPR">    10</i>
   <i type="int" name="NBANDS">    64</i>
   <i type="int" name="NBANDSLOW">    -1</i>
   <i type="int" name="NBANDSHIGH">    -1</i>
   <i name="NELECT">      8.00000000</i>
   <i type="int" name="TURBO">     0</i>
   <i type="int" name="IRESTART">     0</i>
   <i type="int" name="NREBOOT">     0</i>
   <i type="int" name="NMIN">     0</i>
   <i name="EREF">      0.00000000</i>
   <separator name="electronic smearing" >
    <i type="int" name="ISMEAR">     0</i>
    <i name="SIGMA">      0.05000000</i>
    <i name="KSPACING">      0.50000000</i>
    <i type="logical" name="KGAMMA"> T  </i>
    <i type="logical" name="KBLOWUP"> T  </i>
   </separator>
   <separator name="electronic projectors" >
    <i type="logical" name="LREAL"> F  </i>
    <v name="ROPT">      0.00000000</v>
    <i type="int" name="LMAXPAW">  -100</i>
    <i type="int" name="LMAXMIX">     2</i>
    <i type="logical" name="NLSPLINE"> F  </i>
   </separator>
   <separator name="electronic startup" >
    <i type="int" name="ISTART">     0</i>
    <i type="int" name="ICHARG">     2</i>
    <i type="int" name="INIWAV">     1</i>
   </separator>
   <separator name="electronic spin" >
    <i type="int" name="ISPIN">     1</i>
    <i type="logical" name="LNONCOLLINEAR"> F  </i>
    <v name="MAGMOM">      1.00000000      1.00000000</v>
    <i name="NUPDOWN">     -1.00000000</i>
    <i type="logical" name="LSORBIT"> F  </i>
    <v name="SAXIS">      0.00000000      0.00000000      1.00000000</v>
    <i type="logical" name="LSPIRAL"> F  </i>
    <v name="QSPIRAL">      0.00000000      0.00000000      0.00000000</v>
    <i type="logical" name="LZEROZ"> F  </i>
   </separator>
   <separator name="electronic exchange-correlation" >
    <i type="logical" name="LASPH"> F  </i>
   </separator>
   <separator name="electronic convergence" >
    <i type="int" name="NELM">     1</i>
    <i type="int" name="NELMDL">    -5</i>
    <i type="int" name="NELMIN">     2</i>
    <i name="ENINI">    400.00000000</i>
    <separator name="electronic convergence detail" >
     <i type="logical" name="LDIAG"> T  </i>
     <i type="logical" name="LSUBROT"> F  </i>
     <i name="WEIMIN">      0.00000000</i>
     <i name="EBREAK">      0.00000039</i>
     <i name="DEPER">      0.30000000</i>
     <i type="int" name="NRMM">     4</i>
     <i name="TIME">      0.40000000</i>
    </separator>
   </separator>
   <separator name="electronic mixer" >
    <i name="AMIX">      0.40000000</i>
    <i name="BMIX">      1.00000000</i>
    <i name="AMIN">      0.10000000</i>
    <i name="AMIX_MAG">      1.60000000</i>
    <i name="BMIX_MAG">      1.00000000</i>
    <separator name="electronic mixer details" >
     <i type="int" name="IMIX">     4</i>
     <i type="logical" name="MIXFIRST"> F  </i>
     <i type="int" name="MAXMIX">   -45</i>
     <i name="WC">    100.00000000</i>
     <i type="int" name="INIMIX">     1</i>
     <i type="int" name="MIXPRE">     1</i>
     <i type="int" name="MREMOVE">     5</i>
    </separator>
   </separator>
   <separator name="electronic dipolcorrection" >
    <i type="logical" name="LDIPOL"> F  </i>
    <i type="logical" name="LMONO"> F  </i>
    <i type="int" name="IDIPOL">     0</i>
    <i name="EPSILON">      1.00000000</i>
    <v name="DIPOL">   -100.00000000   -100.00000000   -100.00000000</v>
    <i name="EFIELD">      0.00000000</i>
    <i type="logical" name="LVACPOTAV"> F  </i>
   </separator>
  </separator>
  <separator name="grids" >
   <i type="int" name="NGX">    20</i>
   <i type="int" name="NGY">    20</i>
   <i type="int" name="NGZ">    20</i>
   <i type="int" name="NGXF">    40</i>
   <i type="int" name="NGYF">    40</i>
   <i type="int" name="NGZF">    40</i>
   <i type="logical" name="ADDGRID"> F  </i>
  </separator>
  <separator name="ionic" >
   <i type="int" name="NSW">     0</i>
   <i type="int" name="IBRION">    -1</i>
   <i type="int" name="MDALGO">     0</i>
   <i type="int" name="ISIF">     2</i>
   <i name="PSTRESS">      0.00000000</i>
   <i name="EDIFFG">      0.00100000</i>
   <i type="int" name="NFREE">     0</i>
   <i name="POTIM">      0.50000000</i>
   <i name="SMASS">     -3.00000000</i>
   <i name="SCALEE">      1.00000000</i>
  </separator>
  <separator name="ionic md" >
   <i name="TEBEG">      0.00010000</i>
   <i name="TEEND">      0.00010000</i>
   <i type="int" name="NBLOCK">     1</i>
   <i type="int" name="KBLOCK">     1</i>
   <i type="int" name="NPACO">   256</i>
   <i name="APACO">     10.00000000</i>
  </separator>
  <separator name="symmetry" >
   <i type="int" name="ISYM">     2</i>
   <i name="SYMPREC">      0.00001000</i>
  </separator>
  <separator name="dos" >
   <i type="int" name="LORBIT">     0</i>
   <v name="RWIGS">     -1.00000000</v>
   <i type="int" name="NEDOS">   301</i>
   <i name="EMIN">     10.00000000</i>
   <i name="EMAX">    -10.00000000</i>
   <i name="EFERMI">      0.00000000</i>
  </separator>
  <separator name="writing" >
   <i type="int" name="NWRITE">     2</i>
   <i type="logical" name="LWAVE"> T  </i>
   <i type="logical" name="LDOWNSAMPLE"> F  </i>
   <i type="logical" name="LCHARG"> T  </i>
   <i type="logical" name="LPARD"> F  </i>
   <i type="logical" name="LVTOT"> F  </i>
   <i type="logical" name="LVHAR"> F  </i>
   <i type="logical" name="LELF"> F  </i>
   <i type="logical" name="LOPTICS"> T  </i>
   <v name="STM">      0.00000000      0.00000000      0.00000000      0.00000000      0.00000000      0.00000000      0.00000000</v>
  </separator>
  <separator name="performance" >
   <i type="int" name="NPAR">     2</i>
   <i type="int" name="NSIM">     4</i>
   <i type="int" name="NBLK">    -1</i>
   <i type="logical" name="LPLANE"> T  </i>
   <i type="logical" name="LSCALAPACK"> T  </i>
   <i type="logical" name="LSCAAWARE"> F  </i>
   <i type="logical" name="LSCALU"> F  </i>
   <i type="logical" name="LASYNC"> F  </i>
   <i type="logical" name="LORBITALREAL"> F  </i>
  </separator>
  <separator name="miscellaneous" >
   <i type="int" name="IDIOT">     3</i>
   <i type="int" name="PHON_NSTRUCT">    -1</i>
   <i type="logical" name="LMUSIC"> F  </i>
   <v name="POMASS">     28.08500000</v>
   <v name="DARWINR">      0.00000000</v>
   <v name="DARWINV">      1.00000000</v>
   <i type="logical" name="LCORR"> T  </i>
  </separator>
  <i type="logical" name="GGA_COMPAT"> T  </i>
  <i type="logical" name="LBERRY"> F  </i>
  <i type="int" name="ICORELEVEL">     0</i>
  <i type="logical" name="LDAU"> F  </i>
  <i type="int" name="I_CONSTRAINED_M">     0</i>
  <separator name="electronic exchange-correlation" >
   <i type="string" name="GGA    ">PE</i>
   <i type="string" name="XC_C">1</i>
   <i type="int" name="VOSKOWN">     0</i>
   <i type="logical" name="LHFCALC"> F  </i>
   <i type="string" name="PRECFOCK"></i>
   <i type="logical" name="LSYMGRAD"> F  </i>
   <i type="logical" name="LHFONE"> F  </i>
   <i type="logical" name="LRHFCALC"> F  </i>
   <i type="logical" name="LTHOMAS"> F  </i>
   <i type="logical" name="LMODELHF"> F  </i>
   <i type="logical" name="LFOCKACE"> F  </i>
   <i name="ENCUT4O">     -1.00000000</i>
   <i type="int" name="EXXOEP">     0</i>
   <i type="int" name="FOURORBIT">     0</i>
   <i name="AEXX">      0.00000000</i>
   <i name="HFALPHA">      0.00000000</i>
   <i name="MCALPHA">      0.00000000</i>
   <i name="ALDAX">      1.00000000</i>
   <i name="AGGAX">      1.00000000</i>
   <i name="AMGGAX">      1.00000000</i>
   <i name="ALDAC">      1.00000000</i>
   <i name="AGGAC">      1.00000000</i>
   <i name="AMGGAC">      1.00000000</i>
   <i type="int" name="NKREDX">     1</i>
   <i type="int" name="NKREDY">     1</i>
   <i type="int" name="NKREDZ">     1</i>
   <i type="logical" name="SHIFTRED"> F  </i>
   <i type="logical" name="ODDONLY"> F  </i>
   <i type="logical" name="EVENONLY"> F  </i>
   <i type="int" name="LMAXFOCK">     0</i>
   <i type="int" name="NMAXFOCKAE">     0</i>
   <i type="logical" name="LFOCKAEDFT"> F  </i>
   <i name="HFSCREEN">      0.00000000</i>
   <i name="HFSCREENC">      0.00000000</i>
   <i type="int" name="NBANDSGWLOW">     0</i>
  </separator>
  <separator name="vdW DFT" >
   <i type="logical" name="LUSE_VDW"> F  </i>
   <i type="int" name="IVDW_NL">    -1</i>
   <i type="logical" name="LSPIN_VDW"> F  </i>
   <i name="ZAB_VDW">     -0.84910000</i>
   <i name="GAMMA_VDW">      1.39626340</i>
   <i name="ALPHA_VDW">      0.00000000</i>
   <i name="PARAM1">      0.12340000</i>
   <i name="PARAM2">      1.00000000</i>
   <i name="BPARAM">      6.30000000</i>
   <i name="CPARAM">      0.00930000</i>
  </separator>
  <separator name="model GW" >
   <i type="int" name="MODEL_GW">     0</i>
   <i name="MODEL_EPS0">     12.00772552</i>
   <i name="MODEL_ALPHA">      1.00000000</i>
  </separator>
  <separator name="linear response parameters" >
   <i type="logical" name="LEPSILON"> F  </i>
   <i type="logical" name="LRPA"> F  </i>
   <i type="logical" name="LNABLA"> F  </i>
   <i type="logical" name="LVEL"> F  </i>
   <i name="CSHIFT">      0.10000000</i>
   <i name="OMEGAMAX">     -1.00000000</i>
   <i name="DEG_THRESHOLD">      0.00200000</i>
   <i name="RTIME">     -0.10000000</i>
   <i name="WPLASMAI">      0.00000000</i>
   <v name="DFIELD">      0.00000000      0.00000000      0.00000000</v>
   <v name="WPLASMA">      0.00000000      0.00000000      0.00000000      0.00000000      0.00000000      0.00000000      0.00000000      0.00000000      0.00000000</v>
  </separator>
  <separator name="orbital magnetization" >
   <i type="logical" name="NUCIND"> F  </i>
   <v name="MAGPOS">      0.00000000      0.00000000      0.00000000</v>
   <i type="logical" name="LNICSALL"> T  </i>
   <i type="logical" name="ORBITALMAG"> F  </i>
   <i type="logical" name="LMAGBLOCH"> F  </i>
   <i type="logical" name="LCHIMAG"> F  </i>
   <i type="logical" name="LGAUGE"> T  </i>
   <i type="int" name="MAGATOM">     0</i>
   <v name="MAGDIPOL">      0.00000000      0.00000000      0.00000000</v>
   <v name="AVECCONST">      0.00000000      0.00000000      0.00000000</v>
  </separator>
  <separator name="response functions" >
   <i type="logical" name="LALL_IN_ONE"> F  </i>
   <i type="int" name="IALL_IN_ONE">    -1</i>
   <i type="int" name="NBANDS_WAVE">    -1</i>
   <i type="logical" name="LFINITE_TEMPERATURE"> F  </i>
   <i type="logical" name="LADDER"> F  </i>
   <i type="logical" name="LRPAFORCE"> F  </i>
   <i type="logical" name="LFXC"> F  </i>
   <i type="logical" name="LHARTREE"> T  </i>
   <i type="int" name="IBSE">     2</i>
   <v type="int" name="KPOINT">    -1     0     0     0</v>
   <i type="logical" name="LTCTC"> F  </i>
   <i type="logical" name="LTCTE"> F  </i>
   <i type="logical" name="LTETE"> F  </i>
   <i type="logical" name="LTRIPLET"> F  </i>
   <i type="logical" name="LFXCEPS"> F  </i>
   <i type="logical" name="LFXHEG"> F  </i>
   <i type="int" name="NATURALO">     2</i>
   <i type="logical" name="LHOLEGF"> F  </i>
   <i type="logical" name="L2ORDER"> F  </i>
   <i type="logical" name="LDMP1"> F  </i>
   <i type="logical" name="LMP2LT"> F  </i>
   <i type="logical" name="LSMP2LT"> F  </i>
   <i type="logical" name="LGWLF"> F  </i>
   <i name="ENCUTGW">     -1.60000002</i>
   <i name="ENCUTGWSOFT">     -1.60000002</i>
   <i name="ENCUTLF">     -1.00000000</i>
   <i type="logical" name="ESF_SPLINES"> F  </i>
   <i name="ESF_CONV">      0.01000000</i>
   <i type="int" name="ESF_NINTER">    15</i>
   <i type="int" name="LMAXMP2">    -1</i>
   <i name="SCISSOR">      0.00000000</i>
   <i type="int" name="NOMEGA">     0</i>
   <i type="int" name="NOMEGAR">     0</i>
   <i type="int" name="NBANDSGW">    -1</i>
   <i type="int" name="NBANDSO">    -1</i>
   <i type="int" name="NBANDSV">    -1</i>
   <i type="int" name="NELMGW">     1</i>
   <i type="int" name="NELMHF">     1</i>
   <i type="int" name="DIM">     3</i>
   <i type="int" name="IESPILON">     4</i>
   <i type="int" name="ANTIRES">     0</i>
   <i name="OMEGAMAX">    -30.00000000</i>
   <i name="OMEGAMIN">    -30.00000000</i>
   <i name="OMEGATL">   -200.00000000</i>
   <i type="int" name="OMEGAGRID">     0</i>
   <i name="CSHIFT">     -0.10000000</i>
   <i type="logical" name="LSELFENERGY"> F  </i>
   <i type="logical" name="LSPECTRAL"> F  </i>
   <i type="logical" name="LSPECTRALGW"> F  </i>
   <i type="logical" name="LSINGLES"> F  </i>
   <i type="logical" name="LFERMIGW"> F  </i>
   <i type="logical" name="ODDONLYGW"> F  </i>
   <i type="logical" name="EVENONLYGW"> F  </i>
   <i type="int" name="NKREDLFX">     1</i>
   <i type="int" name="NKREDLFY">     1</i>
   <i type="int" name="NKREDLFZ">     1</i>
   <i type="int" name="MAXMEM">  2800</i>
   <i type="int" name="TELESCOPE">     0</i>
   <i type="int" name="NTAUPAR">    -1</i>
   <i type="int" name="NOMEGAPAR">    -1</i>
   <i name="DAMP_NEWTON">      0.80000001</i>
   <i name="LAMBDA">      1.00000000</i>
  </separator>
  <separator name="External order field" >
   <i name="OFIELD_KAPPA">      0.00000000</i>
   <v name="OFIELD_K">      0.00000000      0.00000000      0.00000000</v>
   <i name="OFIELD_Q6_NEAR">      0.00000000</i>
   <i name="OFIELD_Q6_FAR">      0.00000000</i>
   <i name="OFIELD_A">      0.00000000</i>
  </separator>
  <separator name="optional k-points parameters" >
   <i type="int" name="KPOINTS_OPT_MODE">     1</i>
   <i type="logical" name="LKPOINTS_OPT"> F  </i>
  </separator>
 </parameters>
 <atominfo>
  <atoms>       2 </atoms>
  <types>       1 </types>
  <array name="atoms" >
   <dimension dim="1">ion</dimension>
   <field type="string">element</field>
   <field type="int">atomtype</field>
   <set>
    <rc><c>Si</c><c>   1</c></rc>
    <rc><c>Si</c><c>   1</c></rc>
   </set>
  </array>
  <array name="atomtypes" >
   <dimension dim="1">type</dimension>
   <field type="int">atomspertype</field>
   <field type="string">element</field>
   <field>mass</field>
   <field>valence</field>
   <field type="string">pseudopotential</field>
   <set>
    <rc><c>   2</c><c>Si</c><c>     28.08500000</c><c>      4.00000000</c><c>  PAW_PBE Si_GW 04May2012               </c></rc>
   </set>
  </array>
 </atominfo>
 <structure name="initialpos" >
  <crystal>
   <varray name="basis" >
    <v>       2.71500000       2.71500000       0.00000000 </v>
    <v>       0.00000000       2.71500000       2.71500000 </v>
    <v>       2.71500000       0.00000000       2.71500000 </v>
   </varray>
   <i name="volume">     40.02575175 </i>
   <varray name="rec_basis" >
    <v>       0.18416206       0.18416206      -0.18416206 </v>
    <v>      -0.18416206       0.18416206       0.18416206 </v>
    <v>       0.18416206      -0.18416206       0.18416206 </v>
   </varray>
  </crystal>
  <varray name="positions" >
   <v>       0.00000000       0.00000000       0.00000000 </v>
   <v>       0.25000000       0.25000000       0.25000000 </v>
  </varray>
 </structure>
 <calculation>
  <scstep>
   <time name="diag">  244.93   73.09</time>
   <time name="total">  244.95   73.11</time>
   <energy>
    <i name="alphaZ">      6.08881246 </i>
    <i name="ewald">   -228.56352493 </i>
    <i name="hartreedc">    -11.07014067 </i>
    <i name="XCdc">    -18.88189550 </i>
    <i name="pawpsdc">    176.77094182 </i>
    <i name="pawaedc">   -141.06103538 </i>
    <i name="eentropy">     -0.00000000 </i>
    <i name="bandstr">     -0.41937232 </i>
    <i name="atom">    206.13149246 </i>
    <i name="e_fr_energy">    -11.00472206 </i>
    <i name="e_wo_entrp">    -11.00472206 </i>
    <i name="e_0_energy">    -11.00472206 </i>
   </energy>
  </scstep>
  <structure>
   <crystal>
    <varray name="basis" >
     <v>       2.71500000       2.71500000       0.00000000 </v>
     <v>       0.00000000       2.71500000       2.71500000 </v>
     <v>       2.71500000       0.00000000       2.71500000 </v>
    </varray>
    <i name="volume">     40.02575175 </i>
    <varray name="rec_basis" >
     <v>       0.18416206       0.18416206      -0.18416206 </v>
     <v>      -0.18416206       0.18416206       0.18416206 </v>
     <v>       0.18416206      -0.18416206       0.18416206 </v>
    </varray>
   </crystal>
   <varray name="positions" >
    <v>       0.00000000       0.00000000       0.00000000 </v>
    <v>       0.25000000       0.25000000       0.25000000 </v>
   </varray>
  </structure>
  <varray name="forces" >
   <v>      -0.00000000      -0.00000000      -0.00000000 </v>
   <v>       0.00000000       0.00000000       0.00000000 </v>
  </varray>
  <varray name="stress" >
   <v>     111.88954316      -0.00000000       0.00000000 </v>
   <v>      -0.00000000     111.88954316      -0.00000000 </v>
   <v>       0.00000000      -0.00000000     111.88954316 </v>
  </varray>
  <energy>
   <i name="e_fr_energy">    -11.00472206 </i>
   <i name="e_wo_entrp">    -11.00472206 </i>
   <i name="e_0_energy">    -11.00472206 </i>
  </energy>
  <time name="totalsc">  245.57   73.50</time>
  <eigenvalues>
   <array>
    <dimension dim="1">band</dimension>
    <dimension dim="2">kpoint</dimension>
    <dimension dim="3">spin</dimension>
    <field>eigene</field>
    <field>occ</field>
    <set>
     <set comment="spin 1">
      <set comment="kpoint 1">
       <r>   -6.9226    1.0000 </r>
       <r>    4.9057    1.0000 </r>
       <r>    4.9057    1.0000 </r>
       <r>    4.9057    1.0000 </r>
       <r>    7.6936    0.0000 </r>
       <r>    7.6936    0.0000 </r>
       <r>    7.6936    0.0000 </r>
       <r>    8.2721    0.0000 </r>
       <r>   12.8975    0.0000 </r>
       <r>   12.8975    0.0000 </r>
       <r>   13.1991    0.0000 </r>
       <r>   16.5694    0.0000 </r>
       <r>   16.5694    0.0000 </r>
       <r>   16.5694    0.0000 </r>
       <r>   20.7643    0.0000 </r>
       <r>   28.0575    0.0000 </r>
       <r>   28.0575    0.0000 </r>
       <r>   28.0576    0.0000 </r>
       <r>   29.1142    0.0000 </r>
       <r>   29.1142    0.0000 </r>
       <r>   30.7166    0.0000 </r>
       <r>   30.7166    0.0000 </r>
       <r>   30.7166    0.0000 </r>
       <r>   34.4534    0.0000 </r>
       <r>   34.4534    0.0000 </r>
       <r>   34.4534    0.0000 </r>
       <r>   39.7039    0.0000 </r>
       <r>   39.7039    0.0000 </r>
       <r>   39.7040    0.0000 </r>
       <r>   43.5713    0.0000 </r>
       <r>   43.5713    0.0000 </r>
       <r>   43.6320    0.0000 </r>
       <r>   45.7786    0.0000 </r>
       <r>   45.7786    0.0000 </r>
       <r>   47.5112    0.0000 </r>
       <r>   47.5112    0.0000 </r>
       <r>   47.5112    0.0000 </r>
       <r>   49.1953    0.0000 </r>
       <r>   49.1953    0.0000 </r>
       <r>   49.1953    0.0000 </r>
       <r>   49.4747    0.0000 </r>
       <r>   50.2829    0.0000 </r>
       <r>   50.2829    0.0000 </r>
       <r>   50.2830    0.0000 </r>
       <r>   50.3284    0.0000 </r>
       <r>   50.3284    0.0000 </r>
       <r>   50.3284    0.0000 </r>
       <r>   51.7740    0.0000 </r>
       <r>   51.7740    0.0000 </r>
       <r>   51.7740    0.0000 </r>
       <r>   55.7246    0.0000 </r>
       <r>   56.8223    0.0000 </r>
       <r>   56.8223    0.0000 </r>
       <r>   56.8223    0.0000 </r>
       <r>   57.2221    0.0000 </r>
       <r>   57.2221    0.0000 </r>
       <r>   57.2221    0.0000 </r>
       <r>   62.3023    0.0000 </r>
       <r>   63.2130    0.0000 </r>
       <r>   71.1039    0.0000 </r>
       <r>   71.1039    0.0000 </r>
       <r>   74.4988    0.0000 </r>
       <r>   74.4988    0.0000 </r>
       <r>   74.4989    0.0000 </r>
      </set>
      <set comment="kpoint 2">
       <r>   -6.5660    1.0000 </r>
       <r>    2.5950    1.0000 </r>
       <r>    4.4857    1.0000 </r>
       <r>    4.4857    1.0000 </r>
       <r>    7.4200    0.0000 </r>
       <r>    8.3160    0.0000 </r>
       <r>    8.3160    0.0000 </r>
       <r>   10.3879    0.0000 </r>
       <r>   12.3004    0.0000 </r>
       <r>   12.3004    0.0000 </r>
       <r>   14.3248    0.0000 </r>
       <r>   15.9529    0.0000 </r>
       <r>   18.3827    0.0000 </r>
       <r>   18.3827    0.0000 </r>
       <r>   22.6591    0.0000 </r>
       <r>   25.0100    0.0000 </r>
       <r>   25.0100    0.0000 </r>
       <r>   25.6341    0.0000 </r>
       <r>   28.8262    0.0000 </r>
       <r>   28.8262    0.0000 </r>
       <r>   31.3725    0.0000 </r>
       <r>   31.3725    0.0000 </r>
       <r>   32.6603    0.0000 </r>
       <r>   34.7721    0.0000 </r>
       <r>   36.2558    0.0000 </r>
       <r>   37.4957    0.0000 </r>
       <r>   37.4958    0.0000 </r>
       <r>   38.9809    0.0000 </r>
       <r>   38.9809    0.0000 </r>
       <r>   40.6639    0.0000 </r>
       <r>   40.6640    0.0000 </r>
       <r>   43.2733    0.0000 </r>
       <r>   43.2733    0.0000 </r>
       <r>   44.2805    0.0000 </r>
       <r>   46.3090    0.0000 </r>
       <r>   46.5497    0.0000 </r>
       <r>   46.8845    0.0000 </r>
       <r>   46.8845    0.0000 </r>
       <r>   48.6895    0.0000 </r>
       <r>   49.1885    0.0000 </r>
       <r>   49.1886    0.0000 </r>
       <r>   49.4257    0.0000 </r>
       <r>   50.5657    0.0000 </r>
       <r>   50.5800    0.0000 </r>
       <r>   50.5800    0.0000 </r>
       <r>   53.3749    0.0000 </r>
       <r>   53.5882    0.0000 </r>
       <r>   53.5883    0.0000 </r>
       <r>   54.8457    0.0000 </r>
       <r>   54.8457    0.0000 </r>
       <r>   56.4908    0.0000 </r>
       <r>   56.9301    0.0000 </r>
       <r>   58.2361    0.0000 </r>
       <r>   58.2361    0.0000 </r>
       <r>   60.6669    0.0000 </r>
       <r>   60.6669    0.0000 </r>
       <r>   61.5507    0.0000 </r>
       <r>   64.6952    0.0000 </r>
       <r>   66.9010    0.0000 </r>
       <r>   67.2828    0.0000 </r>
       <r>   67.2829    0.0000 </r>
       <r>   69.8052    0.0000 </r>
       <r>   70.9159    0.0000 </r>
       <r>   70.9161    0.0000 </r>
      </set>
      <set comment="kpoint 3">
       <r>   -5.5675    1.0000 </r>
       <r>   -0.3081    1.0000 </r>
       <r>    3.9518    1.0000 </r>
       <r>    3.9518    1.0000 </r>
       <r>    6.8233    0.0000 </r>
       <r>    8.6591    0.0000 </r>
       <r>    8.6591    0.0000 </r>
       <r>   13.0163    0.0000 </r>
       <r>   13.1510    0.0000 </r>
       <r>   13.1510    0.0000 </r>
       <r>   14.2579    0.0000 </r>
       <r>   18.7210    0.0000 </r>
       <r>   19.6809    0.0000 </r>
       <r>   19.6810    0.0000 </r>
       <r>   21.8444    0.0000 </r>
       <r>   22.9086    0.0000 </r>
       <r>   22.9086    0.0000 </r>
       <r>   27.2506    0.0000 </r>
       <r>   28.9516    0.0000 </r>
       <r>   28.9517    0.0000 </r>
       <r>   30.2309    0.0000 </r>
       <r>   31.7324    0.0000 </r>
       <r>   31.7324    0.0000 </r>
       <r>   34.6097    0.0000 </r>
       <r>   34.6097    0.0000 </r>
       <r>   34.9207    0.0000 </r>
       <r>   35.5881    0.0000 </r>
       <r>   37.8823    0.0000 </r>
       <r>   37.8823    0.0000 </r>
       <r>   39.0148    0.0000 </r>
       <r>   39.0148    0.0000 </r>
       <r>   41.0814    0.0000 </r>
       <r>   43.2654    0.0000 </r>
       <r>   43.2828    0.0000 </r>
       <r>   45.3785    0.0000 </r>
       <r>   45.3785    0.0000 </r>
       <r>   46.3684    0.0000 </r>
       <r>   46.3685    0.0000 </r>
       <r>   48.3000    0.0000 </r>
       <r>   49.1208    0.0000 </r>
       <r>   49.1231    0.0000 </r>
       <r>   49.1231    0.0000 </r>
       <r>   51.2136    0.0000 </r>
       <r>   53.3340    0.0000 </r>
       <r>   53.3341    0.0000 </r>
       <r>   55.7714    0.0000 </r>
       <r>   55.7714    0.0000 </r>
       <r>   57.8034    0.0000 </r>
       <r>   58.5657    0.0000 </r>
       <r>   58.5658    0.0000 </r>
       <r>   59.1379    0.0000 </r>
       <r>   62.2318    0.0000 </r>
       <r>   62.2318    0.0000 </r>
       <r>   62.7183    0.0000 </r>
       <r>   63.8890    0.0000 </r>
       <r>   63.8890    0.0000 </r>
       <r>   64.0381    0.0000 </r>
       <r>   65.4992    0.0000 </r>
       <r>   65.9871    0.0000 </r>
       <r>   65.9872    0.0000 </r>
       <r>   66.9692    0.0000 </r>
       <r>   66.9692    0.0000 </r>
       <r>   66.9910    0.0000 </r>
       <r>   69.1693    0.0000 </r>
      </set>
      <set comment="kpoint 4">
       <r>   -4.6442    1.0000 </r>
       <r>   -1.9025    1.0000 </r>
       <r>    3.7558    1.0000 </r>
       <r>    3.7558    1.0000 </r>
       <r>    6.5947    0.0000 </r>
       <r>    8.5223    0.0000 </r>
       <r>    8.5223    0.0000 </r>
       <r>   13.0397    0.0000 </r>
       <r>   15.6604    0.0000 </r>
       <r>   15.6604    0.0000 </r>
       <r>   16.3575    0.0000 </r>
       <r>   16.4575    0.0000 </r>
       <r>   16.4575    0.0000 </r>
       <r>   17.9979    0.0000 </r>
       <r>   24.3906    0.0000 </r>
       <r>   25.1229    0.0000 </r>
       <r>   26.8384    0.0000 </r>
       <r>   26.8384    0.0000 </r>
       <r>   26.8588    0.0000 </r>
       <r>   26.8588    0.0000 </r>
       <r>   30.8759    0.0000 </r>
       <r>   31.5510    0.0000 </r>
       <r>   31.5510    0.0000 </r>
       <r>   32.3728    0.0000 </r>
       <r>   32.3728    0.0000 </r>
       <r>   33.7435    0.0000 </r>
       <r>   36.1707    0.0000 </r>
       <r>   37.5377    0.0000 </r>
       <r>   37.5378    0.0000 </r>
       <r>   38.0483    0.0000 </r>
       <r>   38.0483    0.0000 </r>
       <r>   38.9576    0.0000 </r>
       <r>   41.8563    0.0000 </r>
       <r>   42.0476    0.0000 </r>
       <r>   46.0012    0.0000 </r>
       <r>   46.0012    0.0000 </r>
       <r>   47.8449    0.0000 </r>
       <r>   47.8449    0.0000 </r>
       <r>   48.0626    0.0000 </r>
       <r>   48.8755    0.0000 </r>
       <r>   51.2219    0.0000 </r>
       <r>   51.2221    0.0000 </r>
       <r>   53.4156    0.0000 </r>
       <r>   53.4157    0.0000 </r>
       <r>   54.1523    0.0000 </r>
       <r>   57.7657    0.0000 </r>
       <r>   57.7658    0.0000 </r>
       <r>   57.8905    0.0000 </r>
       <r>   59.3501    0.0000 </r>
       <r>   59.3502    0.0000 </r>
       <r>   59.6480    0.0000 </r>
       <r>   61.0820    0.0000 </r>
       <r>   61.0821    0.0000 </r>
       <r>   63.5847    0.0000 </r>
       <r>   63.5847    0.0000 </r>
       <r>   64.4195    0.0000 </r>
       <r>   64.4197    0.0000 </r>
       <r>   64.5491    0.0000 </r>
       <r>   66.8671    0.0000 </r>
       <r>   67.2739    0.0000 </r>
       <r>   67.8854    0.0000 </r>
       <r>   67.8854    0.0000 </r>
       <r>   69.4538    0.0000 </r>
       <r>   70.1182    0.0000 </r>
      </set>
      <set comment="kpoint 5">
       <r>   -6.4444    1.0000 </r>
       <r>    2.8771    1.0000 </r>
       <r>    3.7902    1.0000 </r>
       <r>    3.7902    1.0000 </r>
       <r>    6.8669    0.0000 </r>
       <r>    9.3787    0.0000 </r>
       <r>    9.3950    0.0000 </r>
       <r>    9.3950    0.0000 </r>
       <r>   11.6949    0.0000 </r>
       <r>   13.4340    0.0000 </r>
       <r>   14.9626    0.0000 </r>
       <r>   17.3852    0.0000 </r>
       <r>   17.3852    0.0000 </r>
       <r>   17.9297    0.0000 </r>
       <r>   23.6817    0.0000 </r>
       <r>   24.5200    0.0000 </r>
       <r>   24.5200    0.0000 </r>
       <r>   25.7129    0.0000 </r>
       <r>   26.8889    0.0000 </r>
       <r>   28.7737    0.0000 </r>
       <r>   31.5138    0.0000 </r>
       <r>   32.1130    0.0000 </r>
       <r>   32.1130    0.0000 </r>
       <r>   36.9574    0.0000 </r>
       <r>   36.9574    0.0000 </r>
       <r>   37.0784    0.0000 </r>
       <r>   37.6867    0.0000 </r>
       <r>   37.6867    0.0000 </r>
       <r>   37.9025    0.0000 </r>
       <r>   38.8701    0.0000 </r>
       <r>   41.4638    0.0000 </r>
       <r>   42.7155    0.0000 </r>
       <r>   44.5887    0.0000 </r>
       <r>   44.5888    0.0000 </r>
       <r>   45.6601    0.0000 </r>
       <r>   45.6829    0.0000 </r>
       <r>   46.7514    0.0000 </r>
       <r>   46.9435    0.0000 </r>
       <r>   46.9435    0.0000 </r>
       <r>   49.1352    0.0000 </r>
       <r>   49.1352    0.0000 </r>
       <r>   50.1170    0.0000 </r>
       <r>   51.2057    0.0000 </r>
       <r>   52.2292    0.0000 </r>
       <r>   52.6498    0.0000 </r>
       <r>   52.6498    0.0000 </r>
       <r>   53.9325    0.0000 </r>
       <r>   53.9724    0.0000 </r>
       <r>   53.9725    0.0000 </r>
       <r>   54.6392    0.0000 </r>
       <r>   54.9170    0.0000 </r>
       <r>   56.9583    0.0000 </r>
       <r>   58.6817    0.0000 </r>
       <r>   58.6817    0.0000 </r>
       <r>   61.7735    0.0000 </r>
       <r>   62.5051    0.0000 </r>
       <r>   64.0723    0.0000 </r>
       <r>   64.0723    0.0000 </r>
       <r>   65.7397    0.0000 </r>
       <r>   66.0658    0.0000 </r>
       <r>   70.1393    0.0000 </r>
       <r>   70.1394    0.0000 </r>
       <r>   70.7152    0.0000 </r>
       <r>   71.2815    0.0000 </r>
      </set>
      <set comment="kpoint 6">
       <r>   -5.6410    1.0000 </r>
       <r>    0.5414    1.0000 </r>
       <r>    3.0122    1.0000 </r>
       <r>    3.2513    1.0000 </r>
       <r>    7.1130    0.0000 </r>
       <r>    9.1762    0.0000 </r>
       <r>    9.6394    0.0000 </r>
       <r>   10.1530    0.0000 </r>
       <r>   14.1113    0.0000 </r>
       <r>   14.2250    0.0000 </r>
       <r>   15.6744    0.0000 </r>
       <r>   18.0788    0.0000 </r>
       <r>   18.8661    0.0000 </r>
       <r>   20.3850    0.0000 </r>
       <r>   21.2619    0.0000 </r>
       <r>   22.2368    0.0000 </r>
       <r>   24.8672    0.0000 </r>
       <r>   25.6272    0.0000 </r>
       <r>   26.8256    0.0000 </r>
       <r>   28.6414    0.0000 </r>
       <r>   30.6275    0.0000 </r>
       <r>   31.3886    0.0000 </r>
       <r>   32.3505    0.0000 </r>
       <r>   34.7696    0.0000 </r>
       <r>   35.0292    0.0000 </r>
       <r>   35.1543    0.0000 </r>
       <r>   36.9094    0.0000 </r>
       <r>   37.4289    0.0000 </r>
       <r>   38.2797    0.0000 </r>
       <r>   39.1029    0.0000 </r>
       <r>   40.6127    0.0000 </r>
       <r>   41.8521    0.0000 </r>
       <r>   42.7082    0.0000 </r>
       <r>   43.0463    0.0000 </r>
       <r>   44.0736    0.0000 </r>
       <r>   45.4583    0.0000 </r>
       <r>   46.5084    0.0000 </r>
       <r>   47.4493    0.0000 </r>
       <r>   49.0027    0.0000 </r>
       <r>   49.1532    0.0000 </r>
       <r>   49.9639    0.0000 </r>
       <r>   50.0633    0.0000 </r>
       <r>   51.3008    0.0000 </r>
       <r>   51.6636    0.0000 </r>
       <r>   52.9219    0.0000 </r>
       <r>   53.6079    0.0000 </r>
       <r>   55.6068    0.0000 </r>
       <r>   56.0272    0.0000 </r>
       <r>   56.1058    0.0000 </r>
       <r>   57.7784    0.0000 </r>
       <r>   59.7002    0.0000 </r>
       <r>   60.3357    0.0000 </r>
       <r>   61.6146    0.0000 </r>
       <r>   63.2958    0.0000 </r>
       <r>   63.3298    0.0000 </r>
       <r>   64.5175    0.0000 </r>
       <r>   64.6256    0.0000 </r>
       <r>   65.7578    0.0000 </r>
       <r>   67.0626    0.0000 </r>
       <r>   67.1630    0.0000 </r>
       <r>   68.2102    0.0000 </r>
       <r>   68.3063    0.0000 </r>
       <r>   69.0755    0.0000 </r>
       <r>   69.5337    0.0000 </r>
      </set>
      <set comment="kpoint 7">
       <r>   -4.4802    1.0000 </r>
       <r>   -1.5718    1.0000 </r>
       <r>    2.2500    1.0000 </r>
       <r>    3.2135    1.0000 </r>
       <r>    7.2014    0.0000 </r>
       <r>    9.1850    0.0000 </r>
       <r>    9.7614    0.0000 </r>
       <r>   11.5397    0.0000 </r>
       <r>   14.6115    0.0000 </r>
       <r>   15.5841    0.0000 </r>
       <r>   16.9026    0.0000 </r>
       <r>   16.9298    0.0000 </r>
       <r>   17.6988    0.0000 </r>
       <r>   21.1501    0.0000 </r>
       <r>   23.0508    0.0000 </r>
       <r>   24.1966    0.0000 </r>
       <r>   25.3524    0.0000 </r>
       <r>   25.6587    0.0000 </r>
       <r>   26.1421    0.0000 </r>
       <r>   27.8037    0.0000 </r>
       <r>   29.1900    0.0000 </r>
       <r>   31.5009    0.0000 </r>
       <r>   32.0125    0.0000 </r>
       <r>   32.4330    0.0000 </r>
       <r>   32.8020    0.0000 </r>
       <r>   34.6394    0.0000 </r>
       <r>   35.3864    0.0000 </r>
       <r>   35.6686    0.0000 </r>
       <r>   37.2868    0.0000 </r>
       <r>   38.9755    0.0000 </r>
       <r>   39.6346    0.0000 </r>
       <r>   40.4439    0.0000 </r>
       <r>   42.1435    0.0000 </r>
       <r>   42.2188    0.0000 </r>
       <r>   44.3574    0.0000 </r>
       <r>   45.5614    0.0000 </r>
       <r>   47.6609    0.0000 </r>
       <r>   48.2541    0.0000 </r>
       <r>   49.7846    0.0000 </r>
       <r>   51.1154    0.0000 </r>
       <r>   51.3328    0.0000 </r>
       <r>   51.9870    0.0000 </r>
       <r>   52.7608    0.0000 </r>
       <r>   52.9656    0.0000 </r>
       <r>   53.2249    0.0000 </r>
       <r>   55.3990    0.0000 </r>
       <r>   55.6839    0.0000 </r>
       <r>   57.7503    0.0000 </r>
       <r>   58.6726    0.0000 </r>
       <r>   59.2091    0.0000 </r>
       <r>   60.4883    0.0000 </r>
       <r>   61.1486    0.0000 </r>
       <r>   62.3401    0.0000 </r>
       <r>   62.9395    0.0000 </r>
       <r>   64.1368    0.0000 </r>
       <r>   64.8912    0.0000 </r>
       <r>   65.1483    0.0000 </r>
       <r>   65.6730    0.0000 </r>
       <r>   66.7119    0.0000 </r>
       <r>   66.8912    0.0000 </r>
       <r>   67.7459    0.0000 </r>
       <r>   69.1688    0.0000 </r>
       <r>   69.2484    0.0000 </r>
       <r>   69.3135    0.0000 </r>
      </set>
      <set comment="kpoint 8">
       <r>   -4.8529    1.0000 </r>
       <r>   -0.9902    1.0000 </r>
       <r>    1.9975    1.0000 </r>
       <r>    3.6685    1.0000 </r>
       <r>    7.5825    0.0000 </r>
       <r>    9.2023    0.0000 </r>
       <r>    9.3783    0.0000 </r>
       <r>   12.3679    0.0000 </r>
       <r>   12.4939    0.0000 </r>
       <r>   14.5441    0.0000 </r>
       <r>   16.6878    0.0000 </r>
       <r>   17.8107    0.0000 </r>
       <r>   20.0542    0.0000 </r>
       <r>   20.4477    0.0000 </r>
       <r>   21.4126    0.0000 </r>
       <r>   23.0929    0.0000 </r>
       <r>   24.9694    0.0000 </r>
       <r>   26.8784    0.0000 </r>
       <r>   27.2750    0.0000 </r>
       <r>   28.0749    0.0000 </r>
       <r>   29.9260    0.0000 </r>
       <r>   30.2684    0.0000 </r>
       <r>   32.2993    0.0000 </r>
       <r>   32.7618    0.0000 </r>
       <r>   33.5546    0.0000 </r>
       <r>   33.6488    0.0000 </r>
       <r>   34.9552    0.0000 </r>
       <r>   37.2764    0.0000 </r>
       <r>   38.5071    0.0000 </r>
       <r>   38.9769    0.0000 </r>
       <r>   39.5837    0.0000 </r>
       <r>   40.9611    0.0000 </r>
       <r>   42.2012    0.0000 </r>
       <r>   42.7918    0.0000 </r>
       <r>   44.2304    0.0000 </r>
       <r>   45.4936    0.0000 </r>
       <r>   45.8848    0.0000 </r>
       <r>   47.5566    0.0000 </r>
       <r>   47.7680    0.0000 </r>
       <r>   50.0827    0.0000 </r>
       <r>   52.0703    0.0000 </r>
       <r>   52.6443    0.0000 </r>
       <r>   53.0944    0.0000 </r>
       <r>   53.1906    0.0000 </r>
       <r>   53.9155    0.0000 </r>
       <r>   55.0471    0.0000 </r>
       <r>   56.7096    0.0000 </r>
       <r>   58.4716    0.0000 </r>
       <r>   58.7430    0.0000 </r>
       <r>   58.7698    0.0000 </r>
       <r>   60.0500    0.0000 </r>
       <r>   60.8717    0.0000 </r>
       <r>   61.0969    0.0000 </r>
       <r>   62.7295    0.0000 </r>
       <r>   63.2455    0.0000 </r>
       <r>   63.8800    0.0000 </r>
       <r>   64.4790    0.0000 </r>
       <r>   64.7629    0.0000 </r>
       <r>   65.9269    0.0000 </r>
       <r>   67.4026    0.0000 </r>
       <r>   68.1164    0.0000 </r>
       <r>   69.3041    0.0000 </r>
       <r>   69.4905    0.0000 </r>
       <r>   70.0282    0.0000 </r>
      </set>
      <set comment="kpoint 9">
       <r>   -5.9860    1.0000 </r>
       <r>    1.2457    1.0000 </r>
       <r>    2.6371    1.0000 </r>
       <r>    4.3640    1.0000 </r>
       <r>    8.1236    0.0000 </r>
       <r>    8.6830    0.0000 </r>
       <r>    8.8897    0.0000 </r>
       <r>   10.7657    0.0000 </r>
       <r>   11.3363    0.0000 </r>
       <r>   14.4293    0.0000 </r>
       <r>   15.6807    0.0000 </r>
       <r>   16.7689    0.0000 </r>
       <r>   18.6067    0.0000 </r>
       <r>   20.7669    0.0000 </r>
       <r>   21.1828    0.0000 </r>
       <r>   23.7730    0.0000 </r>
       <r>   25.5743    0.0000 </r>
       <r>   25.7049    0.0000 </r>
       <r>   26.4700    0.0000 </r>
       <r>   27.4734    0.0000 </r>
       <r>   31.4586    0.0000 </r>
       <r>   31.6981    0.0000 </r>
       <r>   33.6338    0.0000 </r>
       <r>   34.2504    0.0000 </r>
       <r>   35.7251    0.0000 </r>
       <r>   36.2984    0.0000 </r>
       <r>   36.6411    0.0000 </r>
       <r>   38.9819    0.0000 </r>
       <r>   39.1049    0.0000 </r>
       <r>   39.2913    0.0000 </r>
       <r>   39.5567    0.0000 </r>
       <r>   40.5228    0.0000 </r>
       <r>   43.8342    0.0000 </r>
       <r>   44.0971    0.0000 </r>
       <r>   44.4511    0.0000 </r>
       <r>   45.1878    0.0000 </r>
       <r>   45.6876    0.0000 </r>
       <r>   46.0654    0.0000 </r>
       <r>   47.8819    0.0000 </r>
       <r>   49.3906    0.0000 </r>
       <r>   50.0376    0.0000 </r>
       <r>   50.0577    0.0000 </r>
       <r>   52.0225    0.0000 </r>
       <r>   52.1845    0.0000 </r>
       <r>   52.3412    0.0000 </r>
       <r>   53.5629    0.0000 </r>
       <r>   53.9369    0.0000 </r>
       <r>   54.8085    0.0000 </r>
       <r>   57.5625    0.0000 </r>
       <r>   58.4146    0.0000 </r>
       <r>   58.5914    0.0000 </r>
       <r>   59.8326    0.0000 </r>
       <r>   61.1794    0.0000 </r>
       <r>   62.0564    0.0000 </r>
       <r>   62.2716    0.0000 </r>
       <r>   63.6804    0.0000 </r>
       <r>   63.8117    0.0000 </r>
       <r>   63.8567    0.0000 </r>
       <r>   65.0734    0.0000 </r>
       <r>   65.1477    0.0000 </r>
       <r>   68.5128    0.0000 </r>
       <r>   68.6100    0.0000 </r>
       <r>   69.6892    0.0000 </r>
       <r>   70.1676    0.0000 </r>
      </set>
      <set comment="kpoint 10">
       <r>   -5.0428    1.0000 </r>
       <r>   -0.0694    1.0000 </r>
       <r>    2.6015    1.0000 </r>
       <r>    2.6015    1.0000 </r>
       <r>    5.9237    0.0000 </r>
       <r>    7.2264    0.0000 </r>
       <r>   12.2774    0.0000 </r>
       <r>   12.2774    0.0000 </r>
       <r>   14.7800    0.0000 </r>
       <r>   15.0349    0.0000 </r>
       <r>   18.2086    0.0000 </r>
       <r>   18.5667    0.0000 </r>
       <r>   18.5667    0.0000 </r>
       <r>   20.3682    0.0000 </r>
       <r>   21.3036    0.0000 </r>
       <r>   21.6739    0.0000 </r>
       <r>   21.6739    0.0000 </r>
       <r>   24.1587    0.0000 </r>
       <r>   27.8842    0.0000 </r>
       <r>   29.7181    0.0000 </r>
       <r>   30.5949    0.0000 </r>
       <r>   30.5949    0.0000 </r>
       <r>   31.8736    0.0000 </r>
       <r>   32.6650    0.0000 </r>
       <r>   32.9092    0.0000 </r>
       <r>   33.9582    0.0000 </r>
       <r>   33.9582    0.0000 </r>
       <r>   40.3333    0.0000 </r>
       <r>   40.4092    0.0000 </r>
       <r>   40.8965    0.0000 </r>
       <r>   40.8965    0.0000 </r>
       <r>   41.4870    0.0000 </r>
       <r>   43.2767    0.0000 </r>
       <r>   43.2767    0.0000 </r>
       <r>   45.1448    0.0000 </r>
       <r>   45.3683    0.0000 </r>
       <r>   45.3683    0.0000 </r>
       <r>   46.8563    0.0000 </r>
       <r>   48.0843    0.0000 </r>
       <r>   48.8696    0.0000 </r>
       <r>   48.9593    0.0000 </r>
       <r>   48.9593    0.0000 </r>
       <r>   50.6983    0.0000 </r>
       <r>   53.4849    0.0000 </r>
       <r>   53.5094    0.0000 </r>
       <r>   53.5095    0.0000 </r>
       <r>   56.3418    0.0000 </r>
       <r>   58.1224    0.0000 </r>
       <r>   58.6492    0.0000 </r>
       <r>   58.8912    0.0000 </r>
       <r>   58.9663    0.0000 </r>
       <r>   58.9663    0.0000 </r>
       <r>   63.4269    0.0000 </r>
       <r>   63.4269    0.0000 </r>
       <r>   63.5062    0.0000 </r>
       <r>   65.1264    0.0000 </r>
       <r>   65.2722    0.0000 </r>
       <r>   66.3511    0.0000 </r>
       <r>   66.3511    0.0000 </r>
       <r>   68.8607    0.0000 </r>
       <r>   68.8607    0.0000 </r>
       <r>   68.9802    0.0000 </r>
       <r>   69.3833    0.0000 </r>
       <r>   71.3583    0.0000 </r>
      </set>
      <set comment="kpoint 11">
       <r>   -3.9004    1.0000 </r>
       <r>   -1.6018    1.0000 </r>
       <r>    1.4560    1.0000 </r>
       <r>    2.4657    1.0000 </r>
       <r>    6.2745    0.0000 </r>
       <r>    7.8828    0.0000 </r>
       <r>   12.4961    0.0000 </r>
       <r>   12.5318    0.0000 </r>
       <r>   15.6530    0.0000 </r>
       <r>   15.7880    0.0000 </r>
       <r>   17.4089    0.0000 </r>
       <r>   17.8437    0.0000 </r>
       <r>   19.9496    0.0000 </r>
       <r>   20.8724    0.0000 </r>
       <r>   21.0182    0.0000 </r>
       <r>   23.8857    0.0000 </r>
       <r>   23.9284    0.0000 </r>
       <r>   24.7059    0.0000 </r>
       <r>   25.6952    0.0000 </r>
       <r>   27.7988    0.0000 </r>
       <r>   28.4329    0.0000 </r>
       <r>   29.0358    0.0000 </r>
       <r>   29.3135    0.0000 </r>
       <r>   31.7918    0.0000 </r>
       <r>   34.2940    0.0000 </r>
       <r>   34.5661    0.0000 </r>
       <r>   36.8700    0.0000 </r>
       <r>   37.1746    0.0000 </r>
       <r>   37.5359    0.0000 </r>
       <r>   39.8204    0.0000 </r>
       <r>   40.6668    0.0000 </r>
       <r>   41.6951    0.0000 </r>
       <r>   42.3997    0.0000 </r>
       <r>   43.8984    0.0000 </r>
       <r>   44.3276    0.0000 </r>
       <r>   45.6591    0.0000 </r>
       <r>   46.6782    0.0000 </r>
       <r>   47.3617    0.0000 </r>
       <r>   48.5843    0.0000 </r>
       <r>   49.0257    0.0000 </r>
       <r>   49.9475    0.0000 </r>
       <r>   51.6676    0.0000 </r>
       <r>   52.5487    0.0000 </r>
       <r>   53.9532    0.0000 </r>
       <r>   54.5082    0.0000 </r>
       <r>   55.4985    0.0000 </r>
       <r>   55.8610    0.0000 </r>
       <r>   58.2684    0.0000 </r>
       <r>   59.1431    0.0000 </r>
       <r>   59.9513    0.0000 </r>
       <r>   60.6384    0.0000 </r>
       <r>   61.2195    0.0000 </r>
       <r>   61.7048    0.0000 </r>
       <r>   62.8998    0.0000 </r>
       <r>   63.2763    0.0000 </r>
       <r>   64.2097    0.0000 </r>
       <r>   64.6316    0.0000 </r>
       <r>   66.4335    0.0000 </r>
       <r>   67.5894    0.0000 </r>
       <r>   67.5989    0.0000 </r>
       <r>   68.8516    0.0000 </r>
       <r>   69.0645    0.0000 </r>
       <r>   70.3018    0.0000 </r>
       <r>   70.7431    0.0000 </r>
      </set>
      <set comment="kpoint 12">
       <r>   -3.7195    1.0000 </r>
       <r>   -1.7928    1.0000 </r>
       <r>    0.7091    1.0000 </r>
       <r>    2.8913    1.0000 </r>
       <r>    6.7689    0.0000 </r>
       <r>   10.9109    0.0000 </r>
       <r>   11.5769    0.0000 </r>
       <r>   12.0956    0.0000 </r>
       <r>   12.4833    0.0000 </r>
       <r>   12.8230    0.0000 </r>
       <r>   19.5839    0.0000 </r>
       <r>   20.2220    0.0000 </r>
       <r>   20.6781    0.0000 </r>
       <r>   20.7409    0.0000 </r>
       <r>   21.6606    0.0000 </r>
       <r>   22.5202    0.0000 </r>
       <r>   23.3679    0.0000 </r>
       <r>   25.0827    0.0000 </r>
       <r>   27.2942    0.0000 </r>
       <r>   27.7688    0.0000 </r>
       <r>   28.2017    0.0000 </r>
       <r>   29.2139    0.0000 </r>
       <r>   31.8056    0.0000 </r>
       <r>   31.9665    0.0000 </r>
       <r>   32.6749    0.0000 </r>
       <r>   34.0701    0.0000 </r>
       <r>   34.3988    0.0000 </r>
       <r>   34.5148    0.0000 </r>
       <r>   39.5591    0.0000 </r>
       <r>   40.1215    0.0000 </r>
       <r>   40.4454    0.0000 </r>
       <r>   41.2221    0.0000 </r>
       <r>   42.3157    0.0000 </r>
       <r>   42.8776    0.0000 </r>
       <r>   43.6435    0.0000 </r>
       <r>   44.0566    0.0000 </r>
       <r>   47.0661    0.0000 </r>
       <r>   48.5048    0.0000 </r>
       <r>   48.7876    0.0000 </r>
       <r>   51.4696    0.0000 </r>
       <r>   52.1291    0.0000 </r>
       <r>   52.8391    0.0000 </r>
       <r>   53.5530    0.0000 </r>
       <r>   54.8420    0.0000 </r>
       <r>   55.1025    0.0000 </r>
       <r>   55.8350    0.0000 </r>
       <r>   56.2247    0.0000 </r>
       <r>   58.3637    0.0000 </r>
       <r>   58.6266    0.0000 </r>
       <r>   59.1796    0.0000 </r>
       <r>   59.2595    0.0000 </r>
       <r>   60.2460    0.0000 </r>
       <r>   60.6117    0.0000 </r>
       <r>   61.9026    0.0000 </r>
       <r>   62.8358    0.0000 </r>
       <r>   63.8558    0.0000 </r>
       <r>   65.3057    0.0000 </r>
       <r>   66.0145    0.0000 </r>
       <r>   66.5334    0.0000 </r>
       <r>   67.3940    0.0000 </r>
       <r>   67.5489    0.0000 </r>
       <r>   69.0368    0.0000 </r>
       <r>   69.7082    0.0000 </r>
       <r>   71.2581    0.0000 </r>
      </set>
      <set comment="kpoint 13">
       <r>   -2.8352    1.0000 </r>
       <r>   -2.8352    1.0000 </r>
       <r>    2.1761    1.0000 </r>
       <r>    2.1761    1.0000 </r>
       <r>    5.9342    0.0000 </r>
       <r>    5.9342    0.0000 </r>
       <r>   15.1125    0.0000 </r>
       <r>   15.1125    0.0000 </r>
       <r>   15.9957    0.0000 </r>
       <r>   15.9957    0.0000 </r>
       <r>   17.6769    0.0000 </r>
       <r>   17.6769    0.0000 </r>
       <r>   18.0137    0.0000 </r>
       <r>   18.0137    0.0000 </r>
       <r>   23.9744    0.0000 </r>
       <r>   23.9745    0.0000 </r>
       <r>   25.0441    0.0000 </r>
       <r>   25.0441    0.0000 </r>
       <r>   25.4560    0.0000 </r>
       <r>   25.4560    0.0000 </r>
       <r>   26.7955    0.0000 </r>
       <r>   26.7955    0.0000 </r>
       <r>   30.3078    0.0000 </r>
       <r>   30.3079    0.0000 </r>
       <r>   34.4397    0.0000 </r>
       <r>   34.4397    0.0000 </r>
       <r>   39.4796    0.0000 </r>
       <r>   39.4796    0.0000 </r>
       <r>   39.5537    0.0000 </r>
       <r>   39.5537    0.0000 </r>
       <r>   40.8039    0.0000 </r>
       <r>   40.8039    0.0000 </r>
       <r>   43.5057    0.0000 </r>
       <r>   43.5057    0.0000 </r>
       <r>   44.8290    0.0000 </r>
       <r>   44.8290    0.0000 </r>
       <r>   45.6422    0.0000 </r>
       <r>   45.6422    0.0000 </r>
       <r>   47.1435    0.0000 </r>
       <r>   47.1435    0.0000 </r>
       <r>   50.0485    0.0000 </r>
       <r>   50.0485    0.0000 </r>
       <r>   53.7724    0.0000 </r>
       <r>   53.7725    0.0000 </r>
       <r>   55.3351    0.0000 </r>
       <r>   55.3351    0.0000 </r>
       <r>   58.5370    0.0000 </r>
       <r>   58.5373    0.0000 </r>
       <r>   61.2102    0.0000 </r>
       <r>   61.2102    0.0000 </r>
       <r>   62.3187    0.0000 </r>
       <r>   62.3187    0.0000 </r>
       <r>   62.4258    0.0000 </r>
       <r>   62.4258    0.0000 </r>
       <r>   62.6649    0.0000 </r>
       <r>   62.6649    0.0000 </r>
       <r>   65.3617    0.0000 </r>
       <r>   65.3617    0.0000 </r>
       <r>   66.6056    0.0000 </r>
       <r>   66.6056    0.0000 </r>
       <r>   66.9196    0.0000 </r>
       <r>   66.9196    0.0000 </r>
       <r>   68.7047    0.0000 </r>
       <r>   68.7050    0.0000 </r>
      </set>
      <set comment="kpoint 14">
       <r>   -4.6679    1.0000 </r>
       <r>   -0.6850    1.0000 </r>
       <r>    1.5155    1.0000 </r>
       <r>    2.7364    1.0000 </r>
       <r>    7.9792    0.0000 </r>
       <r>    8.9022    0.0000 </r>
       <r>    9.3219    0.0000 </r>
       <r>   12.0914    0.0000 </r>
       <r>   14.0963    0.0000 </r>
       <r>   14.9879    0.0000 </r>
       <r>   18.0272    0.0000 </r>
       <r>   18.4288    0.0000 </r>
       <r>   19.1429    0.0000 </r>
       <r>   19.9518    0.0000 </r>
       <r>   21.8016    0.0000 </r>
       <r>   22.9323    0.0000 </r>
       <r>   24.5976    0.0000 </r>
       <r>   25.9171    0.0000 </r>
       <r>   26.2429    0.0000 </r>
       <r>   27.8424    0.0000 </r>
       <r>   29.1186    0.0000 </r>
       <r>   29.7569    0.0000 </r>
       <r>   31.9605    0.0000 </r>
       <r>   32.6245    0.0000 </r>
       <r>   33.4600    0.0000 </r>
       <r>   35.2882    0.0000 </r>
       <r>   36.5426    0.0000 </r>
       <r>   36.7570    0.0000 </r>
       <r>   37.5430    0.0000 </r>
       <r>   37.9036    0.0000 </r>
       <r>   39.3225    0.0000 </r>
       <r>   41.8712    0.0000 </r>
       <r>   43.0968    0.0000 </r>
       <r>   44.1219    0.0000 </r>
       <r>   44.6390    0.0000 </r>
       <r>   45.3445    0.0000 </r>
       <r>   47.4863    0.0000 </r>
       <r>   47.4978    0.0000 </r>
       <r>   48.3091    0.0000 </r>
       <r>   49.2168    0.0000 </r>
       <r>   50.7190    0.0000 </r>
       <r>   51.2227    0.0000 </r>
       <r>   52.0592    0.0000 </r>
       <r>   53.5327    0.0000 </r>
       <r>   53.7986    0.0000 </r>
       <r>   55.4769    0.0000 </r>
       <r>   56.2578    0.0000 </r>
       <r>   56.5649    0.0000 </r>
       <r>   58.2616    0.0000 </r>
       <r>   59.9684    0.0000 </r>
       <r>   60.4733    0.0000 </r>
       <r>   61.0256    0.0000 </r>
       <r>   62.5631    0.0000 </r>
       <r>   62.7619    0.0000 </r>
       <r>   63.2611    0.0000 </r>
       <r>   63.7307    0.0000 </r>
       <r>   64.6683    0.0000 </r>
       <r>   64.9157    0.0000 </r>
       <r>   67.2341    0.0000 </r>
       <r>   67.4102    0.0000 </r>
       <r>   68.8682    0.0000 </r>
       <r>   69.3974    0.0000 </r>
       <r>   70.4694    0.0000 </r>
       <r>   70.6573    0.0000 </r>
      </set>
      <set comment="kpoint 15">
       <r>   -3.7109    1.0000 </r>
       <r>   -1.8538    1.0000 </r>
       <r>    1.0828    1.0000 </r>
       <r>    2.2940    1.0000 </r>
       <r>    8.5176    0.0000 </r>
       <r>    8.6650    0.0000 </r>
       <r>   11.2113    0.0000 </r>
       <r>   11.6213    0.0000 </r>
       <r>   12.5972    0.0000 </r>
       <r>   16.1528    0.0000 </r>
       <r>   17.0236    0.0000 </r>
       <r>   18.7384    0.0000 </r>
       <r>   21.2465    0.0000 </r>
       <r>   21.8736    0.0000 </r>
       <r>   22.0415    0.0000 </r>
       <r>   23.0619    0.0000 </r>
       <r>   23.7965    0.0000 </r>
       <r>   25.4994    0.0000 </r>
       <r>   25.8680    0.0000 </r>
       <r>   26.8444    0.0000 </r>
       <r>   28.2657    0.0000 </r>
       <r>   30.7194    0.0000 </r>
       <r>   31.0225    0.0000 </r>
       <r>   31.1846    0.0000 </r>
       <r>   33.6220    0.0000 </r>
       <r>   34.8554    0.0000 </r>
       <r>   35.3798    0.0000 </r>
       <r>   36.1112    0.0000 </r>
       <r>   36.4092    0.0000 </r>
       <r>   37.7240    0.0000 </r>
       <r>   39.1243    0.0000 </r>
       <r>   41.4446    0.0000 </r>
       <r>   42.7406    0.0000 </r>
       <r>   44.8929    0.0000 </r>
       <r>   45.1559    0.0000 </r>
       <r>   46.1696    0.0000 </r>
       <r>   47.5574    0.0000 </r>
       <r>   47.9337    0.0000 </r>
       <r>   49.2403    0.0000 </r>
       <r>   49.8311    0.0000 </r>
       <r>   50.2781    0.0000 </r>
       <r>   51.4412    0.0000 </r>
       <r>   53.2777    0.0000 </r>
       <r>   54.1144    0.0000 </r>
       <r>   55.5298    0.0000 </r>
       <r>   56.3330    0.0000 </r>
       <r>   56.8105    0.0000 </r>
       <r>   57.6892    0.0000 </r>
       <r>   58.8765    0.0000 </r>
       <r>   60.1288    0.0000 </r>
       <r>   60.3869    0.0000 </r>
       <r>   60.9133    0.0000 </r>
       <r>   61.1588    0.0000 </r>
       <r>   61.9628    0.0000 </r>
       <r>   62.5333    0.0000 </r>
       <r>   63.3600    0.0000 </r>
       <r>   64.8084    0.0000 </r>
       <r>   65.4474    0.0000 </r>
       <r>   67.2544    0.0000 </r>
       <r>   67.4685    0.0000 </r>
       <r>   68.1660    0.0000 </r>
       <r>   69.1796    0.0000 </r>
       <r>   69.2938    0.0000 </r>
       <r>   70.7969    0.0000 </r>
      </set>
      <set comment="kpoint 16">
       <r>   -2.7267    1.0000 </r>
       <r>   -2.7267    1.0000 </r>
       <r>    1.4465    1.0000 </r>
       <r>    1.4465    1.0000 </r>
       <r>    7.9052    0.0000 </r>
       <r>    7.9052    0.0000 </r>
       <r>   11.8504    0.0000 </r>
       <r>   11.8504    0.0000 </r>
       <r>   15.5768    0.0000 </r>
       <r>   15.5768    0.0000 </r>
       <r>   18.0186    0.0000 </r>
       <r>   18.0186    0.0000 </r>
       <r>   21.5656    0.0000 </r>
       <r>   21.5656    0.0000 </r>
       <r>   22.3377    0.0000 </r>
       <r>   22.3377    0.0000 </r>
       <r>   24.1378    0.0000 </r>
       <r>   24.1379    0.0000 </r>
       <r>   26.3583    0.0000 </r>
       <r>   26.3583    0.0000 </r>
       <r>   28.4184    0.0000 </r>
       <r>   28.4184    0.0000 </r>
       <r>   30.1161    0.0000 </r>
       <r>   30.1161    0.0000 </r>
       <r>   35.1083    0.0000 </r>
       <r>   35.1083    0.0000 </r>
       <r>   36.1112    0.0000 </r>
       <r>   36.1112    0.0000 </r>
       <r>   37.2575    0.0000 </r>
       <r>   37.2576    0.0000 </r>
       <r>   42.1255    0.0000 </r>
       <r>   42.1256    0.0000 </r>
       <r>   42.7471    0.0000 </r>
       <r>   42.7471    0.0000 </r>
       <r>   45.6291    0.0000 </r>
       <r>   45.6291    0.0000 </r>
       <r>   47.4488    0.0000 </r>
       <r>   47.4489    0.0000 </r>
       <r>   48.2999    0.0000 </r>
       <r>   48.2999    0.0000 </r>
       <r>   52.1815    0.0000 </r>
       <r>   52.1815    0.0000 </r>
       <r>   53.8364    0.0000 </r>
       <r>   53.8364    0.0000 </r>
       <r>   55.7923    0.0000 </r>
       <r>   55.7924    0.0000 </r>
       <r>   56.0809    0.0000 </r>
       <r>   56.0809    0.0000 </r>
       <r>   59.6656    0.0000 </r>
       <r>   59.6656    0.0000 </r>
       <r>   60.8383    0.0000 </r>
       <r>   60.8384    0.0000 </r>
       <r>   62.5434    0.0000 </r>
       <r>   62.5434    0.0000 </r>
       <r>   63.7910    0.0000 </r>
       <r>   63.7911    0.0000 </r>
       <r>   64.8037    0.0000 </r>
       <r>   64.8039    0.0000 </r>
       <r>   67.6099    0.0000 </r>
       <r>   67.6099    0.0000 </r>
       <r>   69.1071    0.0000 </r>
       <r>   69.1071    0.0000 </r>
       <r>   70.4148    0.0000 </r>
       <r>   70.4148    0.0000 </r>
      </set>
     </set>
    </set>
   </array>
  </eigenvalues>
  <separator name="orbital magnetization" >
   <v name="MAGDIPOLOUT">      0.00000000      0.00000000      0.00000000</v>
  </separator>
  <dielectricfunction comment="density-density">
   <imag>
    <array>
     <dimension dim="1">gridpoints</dimension>
     <field>energy</field>
     <field>xx</field>
     <field>yy</field>
     <field>zz</field>
     <field>xy</field>
     <field>yz</field>
     <field>zx</field>
     <set>
      <r>     0.0000     0.0000     0.0000     0.0000     0.0000     0.0000     0.0000 </r>
      <r>     0.0978     0.0208     0.0208     0.0208    -0.0000    -0.0000     0.0000 </r>
      <r>     0.1956     0.0417     0.0417     0.0417    -0.0000    -0.0000     0.0000 </r>
      <r>     0.2934     0.0631     0.0631     0.0631    -0.0000    -0.0000     0.0000 </r>
      <r>     0.3912     0.0852     0.0852     0.0852    -0.0000    -0.0000     0.0000 </r>
      <r>     0.4890     0.1082     0.1082     0.1082    -0.0000    -0.0000     0.0000 </r>
      <r>     0.5868     0.1324     0.1324     0.1324    -0.0000    -0.0000     0.0000 </r>
      <r>     0.6846     0.1582     0.1582     0.1582    -0.0000    -0.0000     0.0000 </r>
      <r>     0.7824     0.1858     0.1858     0.1858    -0.0000    -0.0000     0.0000 </r>
      <r>     0.8802     0.2158     0.2158     0.2158    -0.0000    -0.0000     0.0000 </r>
      <r>     0.9780     0.2487     0.2487     0.2487    -0.0000    -0.0000     0.0000 </r>
      <r>     1.0758     0.2851     0.2851     0.2851    -0.0000    -0.0000     0.0000 </r>
      <r>     1.1736     0.3258     0.3258     0.3258    -0.0000    -0.0000     0.0000 </r>
      <r>     1.2714     0.3719     0.3719     0.3719    -0.0000    -0.0000     0.0000 </r>
      <r>     1.3693     0.4248     0.4248     0.4248    -0.0000    -0.0000     0.0000 </r>
      <r>     1.4671     0.4861     0.4861     0.4861    -0.0000    -0.0000     0.0000 </r>
      <r>     1.5649     0.5583     0.5583     0.5583    -0.0000    -0.0000     0.0000 </r>
      <r>     1.6627     0.6446     0.6446     0.6446    -0.0000    -0.0000     0.0000 </r>
      <r>     1.7605     0.7496     0.7496     0.7496    -0.0000    -0.0000     0.0000 </r>
      <r>     1.8583     0.8803     0.8803     0.8803    -0.0000     0.0000     0.0000 </r>
      <r>     1.9561     1.0467     1.0467     1.0467    -0.0000     0.0000     0.0000 </r>
      <r>     2.0539     1.2653     1.2653     1.2653    -0.0000     0.0000     0.0000 </r>
      <r>     2.1517     1.5633     1.5633     1.5633    -0.0000     0.0000     0.0000 </r>
      <r>     2.2495     1.9900     1.9900     1.9900    -0.0000     0.0000     0.0000 </r>
      <r>     2.3473     2.6419     2.6419     2.6419    -0.0000     0.0000     0.0000 </r>
      <r>     2.4451     3.7323     3.7323     3.7323    -0.0000     0.0000     0.0000 </r>
      <r>     2.5429     5.8146     5.8146     5.8146    -0.0000     0.0000     0.0000 </r>
      <r>     2.6407    10.6068    10.6068    10.6068    -0.0000     0.0000     0.0000 </r>
      <r>     2.7385    22.4223    22.4223    22.4223    -0.0000     0.0000     0.0000 </r>
      <r>     2.8363    40.4606    40.4606    40.4606    -0.0000     0.0000     0.0000 </r>
      <r>     2.9341    40.8670    40.8670    40.8670    -0.0000     0.0000     0.0000 </r>
      <r>     3.0319    27.7925    27.7925    27.7925    -0.0000     0.0000     0.0000 </r>
      <r>     3.1297    19.2525    19.2525    19.2525    -0.0000     0.0000     0.0000 </r>
      <r>     3.2275    15.9508    15.9508    15.9508    -0.0000     0.0000     0.0000 </r>
      <r>     3.3253    18.0572    18.0572    18.0572    -0.0000    -0.0000     0.0000 </r>
      <r>     3.4231    15.3502    15.3502    15.3502    -0.0000    -0.0000     0.0000 </r>
      <r>     3.5209    15.8884    15.8884    15.8884    -0.0000    -0.0000     0.0000 </r>
      <r>     3.6187    25.5888    25.5888    25.5888    -0.0000    -0.0000     0.0000 </r>
      <r>     3.7165    51.6212    51.6212    51.6212    -0.0000    -0.0000     0.0000 </r>
      <r>     3.8143    83.6690    83.6690    83.6690    -0.0000    -0.0000     0.0000 </r>
      <r>     3.9121    82.0334    82.0334    82.0334    -0.0000    -0.0000     0.0000 </r>
      <r>     4.0099    54.0353    54.0353    54.0353    -0.0000    -0.0000     0.0000 </r>
      <r>     4.1078    27.2076    27.2076    27.2076    -0.0000    -0.0000     0.0000 </r>
      <r>     4.2056    14.9752    14.9752    14.9752    -0.0000    -0.0000     0.0000 </r>
      <r>     4.3034    10.9540    10.9540    10.9540    -0.0000    -0.0000     0.0000 </r>
      <r>     4.4012     8.3951     8.3951     8.3951    -0.0000    -0.0000     0.0000 </r>
      <r>     4.4990     8.1566     8.1566     8.1566    -0.0000    -0.0000     0.0000 </r>
      <r>     4.5968    11.3929    11.3929    11.3929    -0.0000    -0.0000     0.0000 </r>
      <r>     4.6946    14.8476    14.8476    14.8476    -0.0000    -0.0000     0.0000 </r>
      <r>     4.7924    11.9421    11.9421    11.9421    -0.0000    -0.0000     0.0000 </r>
      <r>     4.8902     6.8601     6.8601     6.8601    -0.0000    -0.0000     0.0000 </r>
      <r>     4.9880     4.3605     4.3605     4.3605    -0.0000    -0.0000     0.0000 </r>
      <r>     5.0858     3.5934     3.5934     3.5934    -0.0000    -0.0000     0.0000 </r>
      <r>     5.1836     4.0137     4.0137     4.0137    -0.0000    -0.0000     0.0000 </r>
      <r>     5.2814     4.2168     4.2168     4.2168    -0.0000    -0.0000     0.0000 </r>
      <r>     5.3792     3.5649     3.5649     3.5649    -0.0000    -0.0000     0.0000 </r>
      <r>     5.4770     4.0355     4.0355     4.0355    -0.0000    -0.0000     0.0000 </r>
      <r>     5.5748     5.7642     5.7642     5.7642    -0.0000    -0.0000     0.0000 </r>
      <r>     5.6726     5.9738     5.9738     5.9738    -0.0000     0.0000     0.0000 </r>
      <r>     5.7704     5.0732     5.0732     5.0732    -0.0000     0.0000     0.0000 </r>
      <r>     5.8682     4.7752     4.7752     4.7752    -0.0000     0.0000     0.0000 </r>
      <r>     5.9660     5.2260     5.2260     5.2260    -0.0000     0.0000     0.0000 </r>
      <r>     6.0638     6.6683     6.6683     6.6683    -0.0000     0.0000     0.0000 </r>
      <r>     6.1616     9.4579     9.4579     9.4579    -0.0000     0.0000     0.0000 </r>
      <r>     6.2594     9.8730     9.8730     9.8730    -0.0000     0.0000     0.0000 </r>
      <r>     6.3572    11.4707    11.4707    11.4707    -0.0000     0.0000     0.0000 </r>
      <r>     6.4550    13.1440    13.1440    13.1440    -0.0000     0.0000     0.0000 </r>
      <r>     6.5528    11.5995    11.5995    11.5995    -0.0000     0.0000     0.0000 </r>
      <r>     6.6506     8.1844     8.1844     8.1844    -0.0000    -0.0000     0.0000 </r>
      <r>     6.7485     5.1604     5.1604     5.1604    -0.0000    -0.0000     0.0000 </r>
      <r>     6.8463     4.9127     4.9127     4.9127    -0.0000    -0.0000     0.0000 </r>
      <r>     6.9441     5.7937     5.7937     5.7937    -0.0000    -0.0000     0.0000 </r>
      <r>     7.0419     4.5720     4.5720     4.5720    -0.0000    -0.0000     0.0000 </r>
      <r>     7.1397     4.3637     4.3637     4.3637    -0.0000    -0.0000     0.0000 </r>
      <r>     7.2375     4.3451     4.3451     4.3451    -0.0000    -0.0000     0.0000 </r>
      <r>     7.3353     4.2789     4.2789     4.2789    -0.0000    -0.0000     0.0000 </r>
      <r>     7.4331     4.2321     4.2321     4.2321    -0.0000    -0.0000     0.0000 </r>
      <r>     7.5309     3.1846     3.1846     3.1846    -0.0000    -0.0000     0.0000 </r>
      <r>     7.6287     2.3132     2.3132     2.3132    -0.0000    -0.0000     0.0000 </r>
      <r>     7.7265     2.3111     2.3111     2.3111    -0.0000    -0.0000     0.0000 </r>
      <r>     7.8243     2.7038     2.7038     2.7038    -0.0000    -0.0000     0.0000 </r>
      <r>     7.9221     1.9753     1.9753     1.9753    -0.0000    -0.0000     0.0000 </r>
      <r>     8.0199     1.6187     1.6187     1.6187    -0.0000    -0.0000     0.0000 </r>
      <r>     8.1177     1.5803     1.5803     1.5803    -0.0000    -0.0000     0.0000 </r>
      <r>     8.2155     1.1079     1.1079     1.1079    -0.0000    -0.0000     0.0000 </r>
      <r>     8.3133     0.7864     0.7864     0.7864    -0.0000     0.0000     0.0000 </r>
      <r>     8.4111     0.6621     0.6621     0.6621    -0.0000    -0.0000     0.0000 </r>
      <r>     8.5089     0.7195     0.7195     0.7195    -0.0000    -0.0000     0.0000 </r>
      <r>     8.6067     0.9917     0.9917     0.9917    -0.0000    -0.0000     0.0000 </r>
      <r>     8.7045     1.3838     1.3838     1.3838    -0.0000    -0.0000     0.0000 </r>
      <r>     8.8023     1.8174     1.8174     1.8174    -0.0000    -0.0000     0.0000 </r>
      <r>     8.9001     1.5387     1.5387     1.5387    -0.0000    -0.0000     0.0000 </r>
      <r>     8.9979     1.1529     1.1529     1.1529    -0.0000     0.0000     0.0000 </r>
      <r>     9.0957     1.1600     1.1600     1.1600    -0.0000     0.0000     0.0000 </r>
      <r>     9.1935     1.2108     1.2108     1.2108    -0.0000     0.0000     0.0000 </r>
      <r>     9.2913     1.1211     1.1211     1.1211    -0.0000     0.0000     0.0000 </r>
      <r>     9.3891     0.9061     0.9061     0.9061    -0.0000     0.0000     0.0000 </r>
      <r>     9.4870     0.9637     0.9637     0.9637    -0.0000     0.0000     0.0000 </r>
      <r>     9.5848     1.1393     1.1393     1.1393    -0.0000    -0.0000     0.0000 </r>
      <r>     9.6826     1.1597     1.1597     1.1597    -0.0000    -0.0000     0.0000 </r>
      <r>     9.7804     0.8644     0.8644     0.8644    -0.0000    -0.0000     0.0000 </r>
      <r>     9.8782     0.8033     0.8033     0.8033    -0.0000    -0.0000     0.0000 </r>
      <r>     9.9760     0.9747     0.9747     0.9747    -0.0000    -0.0000     0.0000 </r>
      <r>    10.0738     1.2393     1.2393     1.2393    -0.0000    -0.0000     0.0000 </r>
      <r>    10.1716     1.1209     1.1209     1.1209    -0.0000    -0.0000     0.0000 </r>
      <r>    10.2694     0.9635     0.9635     0.9635    -0.0000    -0.0000     0.0000 </r>
      <r>    10.3672     1.1202     1.1202     1.1202    -0.0000    -0.0000     0.0000 </r>
      <r>    10.4650     1.1326     1.1326     1.1326    -0.0000    -0.0000     0.0000 </r>
      <r>    10.5628     1.0742     1.0742     1.0742    -0.0000    -0.0000     0.0000 </r>
      <r>    10.6606     0.7634     0.7634     0.7634    -0.0000    -0.0000     0.0000 </r>
      <r>    10.7584     0.5587     0.5587     0.5587    -0.0000    -0.0000     0.0000 </r>
      <r>    10.8562     0.6095     0.6095     0.6095    -0.0000    -0.0000     0.0000 </r>
      <r>    10.9540     0.7816     0.7816     0.7816    -0.0000    -0.0000     0.0000 </r>
      <r>    11.0518     0.8329     0.8329     0.8329    -0.0000     0.0000     0.0000 </r>
      <r>    11.1496     0.6600     0.6600     0.6600    -0.0000     0.0000     0.0000 </r>
      <r>    11.2474     0.5390     0.5390     0.5390    -0.0000     0.0000     0.0000 </r>
      <r>    11.3452     0.5078     0.5078     0.5078    -0.0000     0.0000     0.0000 </r>
      <r>    11.4430     0.4822     0.4822     0.4822    -0.0000     0.0000     0.0000 </r>
      <r>    11.5408     0.4568     0.4568     0.4568    -0.0000     0.0000     0.0000 </r>
      <r>    11.6386     0.4003     0.4003     0.4003    -0.0000     0.0000     0.0000 </r>
      <r>    11.7364     0.3981     0.3981     0.3981    -0.0000     0.0000     0.0000 </r>
      <r>    11.8342     0.3162     0.3162     0.3162    -0.0000     0.0000     0.0000 </r>
      <r>    11.9320     0.2188     0.2188     0.2188    -0.0000     0.0000     0.0000 </r>
      <r>    12.0298     0.1912     0.1912     0.1912    -0.0000     0.0000     0.0000 </r>
      <r>    12.1277     0.2264     0.2264     0.2264    -0.0000     0.0000     0.0000 </r>
      <r>    12.2255     0.3254     0.3254     0.3254    -0.0000     0.0000     0.0000 </r>
      <r>    12.3233     0.4642     0.4642     0.4642    -0.0000     0.0000     0.0000 </r>
      <r>    12.4211     0.5725     0.5725     0.5725    -0.0000    -0.0000     0.0000 </r>
      <r>    12.5189     0.5356     0.5356     0.5356    -0.0000    -0.0000     0.0000 </r>
      <r>    12.6167     0.5524     0.5524     0.5524    -0.0000    -0.0000     0.0000 </r>
      <r>    12.7145     0.5232     0.5232     0.5232    -0.0000    -0.0000     0.0000 </r>
      <r>    12.8123     0.3853     0.3853     0.3853    -0.0000    -0.0000     0.0000 </r>
      <r>    12.9101     0.3031     0.3031     0.3031    -0.0000    -0.0000     0.0000 </r>
      <r>    13.0079     0.3338     0.3338     0.3338    -0.0000    -0.0000     0.0000 </r>
      <r>    13.1057     0.4141     0.4141     0.4141    -0.0000     0.0000     0.0000 </r>
      <r>    13.2035     0.4252     0.4252     0.4252    -0.0000     0.0000     0.0000 </r>
      <r>    13.3013     0.4808     0.4808     0.4808    -0.0000     0.0000     0.0000 </r>
      <r>    13.3991     0.5442     0.5442     0.5442    -0.0000     0.0000     0.0000 </r>
      <r>    13.4969     0.6146     0.6146     0.6146    -0.0000     0.0000     0.0000 </r>
      <r>    13.5947     0.5586     0.5586     0.5586    -0.0000     0.0000     0.0000 </r>
      <r>    13.6925     0.4737     0.4737     0.4737    -0.0000     0.0000     0.0000 </r>
      <r>    13.7903     0.3228     0.3228     0.3228    -0.0000     0.0000     0.0000 </r>
      <r>    13.8881     0.2601     0.2601     0.2601    -0.0000     0.0000     0.0000 </r>
      <r>    13.9859     0.2820     0.2820     0.2820    -0.0000     0.0000     0.0000 </r>
      <r>    14.0837     0.3362     0.3362     0.3362    -0.0000     0.0000     0.0000 </r>
      <r>    14.1815     0.3494     0.3494     0.3494    -0.0000     0.0000     0.0000 </r>
      <r>    14.2793     0.2805     0.2805     0.2805    -0.0000     0.0000     0.0000 </r>
      <r>    14.3771     0.2113     0.2113     0.2113    -0.0000     0.0000     0.0000 </r>
      <r>    14.4749     0.2205     0.2205     0.2205    -0.0000     0.0000     0.0000 </r>
      <r>    14.5727     0.3106     0.3106     0.3106    -0.0000     0.0000     0.0000 </r>
      <r>    14.6705     0.3999     0.3999     0.3999    -0.0000     0.0000     0.0000 </r>
      <r>    14.7683     0.3994     0.3994     0.3994    -0.0000    -0.0000     0.0000 </r>
      <r>    14.8662     0.3492     0.3492     0.3492    -0.0000    -0.0000     0.0000 </r>
      <r>    14.9640     0.2637     0.2637     0.2637    -0.0000    -0.0000     0.0000 </r>
      <r>    15.0618     0.1786     0.1786     0.1786    -0.0000    -0.0000     0.0000 </r>
      <r>    15.1596     0.1389     0.1389     0.1389    -0.0000    -0.0000     0.0000 </r>
      <r>    15.2574     0.1437     0.1437     0.1437    -0.0000    -0.0000     0.0000 </r>
      <r>    15.3552     0.1431     0.1431     0.1431    -0.0000    -0.0000     0.0000 </r>
      <r>    15.4530     0.1608     0.1608     0.1608    -0.0000    -0.0000     0.0000 </r>
      <r>    15.5508     0.1933     0.1933     0.1933    -0.0000    -0.0000     0.0000 </r>
      <r>    15.6486     0.2094     0.2094     0.2094    -0.0000    -0.0000     0.0000 </r>
      <r>    15.7464     0.2059     0.2059     0.2059    -0.0000    -0.0000     0.0000 </r>
      <r>    15.8442     0.1916     0.1916     0.1916    -0.0000    -0.0000     0.0000 </r>
      <r>    15.9420     0.1783     0.1783     0.1783    -0.0000    -0.0000     0.0000 </r>
      <r>    16.0398     0.1313     0.1313     0.1313    -0.0000    -0.0000     0.0000 </r>
      <r>    16.1376     0.1012     0.1012     0.1012    -0.0000    -0.0000     0.0000 </r>
      <r>    16.2354     0.0969     0.0969     0.0969    -0.0000    -0.0000     0.0000 </r>
      <r>    16.3332     0.1070     0.1070     0.1070    -0.0000    -0.0000     0.0000 </r>
      <r>    16.4310     0.1157     0.1157     0.1157    -0.0000    -0.0000     0.0000 </r>
      <r>    16.5288     0.1182     0.1182     0.1182    -0.0000    -0.0000     0.0000 </r>
      <r>    16.6266     0.1114     0.1114     0.1114    -0.0000    -0.0000     0.0000 </r>
      <r>    16.7244     0.1077     0.1077     0.1077    -0.0000    -0.0000     0.0000 </r>
      <r>    16.8222     0.0974     0.0974     0.0974    -0.0000    -0.0000     0.0000 </r>
      <r>    16.9200     0.0754     0.0754     0.0754    -0.0000    -0.0000     0.0000 </r>
      <r>    17.0178     0.0745     0.0745     0.0745    -0.0000    -0.0000     0.0000 </r>
      <r>    17.1156     0.1015     0.1015     0.1015    -0.0000    -0.0000     0.0000 </r>
      <r>    17.2134     0.1160     0.1160     0.1160    -0.0000    -0.0000     0.0000 </r>
      <r>    17.3112     0.1132     0.1132     0.1132    -0.0000    -0.0000     0.0000 </r>
      <r>    17.4090     0.1095     0.1095     0.1095    -0.0000    -0.0000     0.0000 </r>
      <r>    17.5069     0.0904     0.0904     0.0904    -0.0000    -0.0000     0.0000 </r>
      <r>    17.6047     0.0845     0.0845     0.0845    -0.0000    -0.0000     0.0000 </r>
      <r>    17.7025     0.0716     0.0716     0.0716    -0.0000    -0.0000     0.0000 </r>
      <r>    17.8003     0.0708     0.0708     0.0708    -0.0000    -0.0000     0.0000 </r>
      <r>    17.8981     0.0844     0.0844     0.0844    -0.0000    -0.0000     0.0000 </r>
      <r>    17.9959     0.1003     0.1003     0.1003    -0.0000    -0.0000     0.0000 </r>
      <r>    18.0937     0.0828     0.0828     0.0828    -0.0000    -0.0000     0.0000 </r>
      <r>    18.1915     0.0704     0.0704     0.0704    -0.0000    -0.0000     0.0000 </r>
      <r>    18.2893     0.0774     0.0774     0.0774    -0.0000    -0.0000     0.0000 </r>
      <r>    18.3871     0.0731     0.0731     0.0731    -0.0000    -0.0000     0.0000 </r>
      <r>    18.4849     0.0812     0.0812     0.0812    -0.0000    -0.0000     0.0000 </r>
      <r>    18.5827     0.0932     0.0932     0.0932    -0.0000     0.0000     0.0000 </r>
      <r>    18.6805     0.1160     0.1160     0.1160    -0.0000     0.0000     0.0000 </r>
      <r>    18.7783     0.1226     0.1226     0.1226    -0.0000     0.0000     0.0000 </r>
      <r>    18.8761     0.1011     0.1011     0.1011    -0.0000     0.0000     0.0000 </r>
      <r>    18.9739     0.0786     0.0786     0.0786    -0.0000    -0.0000     0.0000 </r>
      <r>    19.0717     0.0668     0.0668     0.0668    -0.0000     0.0000     0.0000 </r>
      <r>    19.1695     0.0643     0.0643     0.0643    -0.0000     0.0000     0.0000 </r>
      <r>    19.2673     0.0787     0.0787     0.0787    -0.0000     0.0000     0.0000 </r>
      <r>    19.3651     0.0891     0.0891     0.0891    -0.0000     0.0000     0.0000 </r>
      <r>    19.4629     0.1072     0.1072     0.1072    -0.0000    -0.0000     0.0000 </r>
      <r>    19.5607     0.1029     0.1029     0.1029    -0.0000    -0.0000     0.0000 </r>
      <r>    19.6585     0.0828     0.0828     0.0828    -0.0000    -0.0000     0.0000 </r>
      <r>    19.7563     0.0699     0.0699     0.0699    -0.0000    -0.0000     0.0000 </r>
      <r>    19.8541     0.0673     0.0673     0.0673    -0.0000    -0.0000     0.0000 </r>
      <r>    19.9519     0.0553     0.0553     0.0553    -0.0000    -0.0000     0.0000 </r>
      <r>    20.0497     0.0521     0.0521     0.0521    -0.0000    -0.0000     0.0000 </r>
      <r>    20.1475     0.0559     0.0559     0.0559    -0.0000    -0.0000     0.0000 </r>
      <r>    20.2454     0.0476     0.0476     0.0476    -0.0000    -0.0000     0.0000 </r>
      <r>    20.3432     0.0372     0.0372     0.0372    -0.0000    -0.0000     0.0000 </r>
      <r>    20.4410     0.0365     0.0365     0.0365    -0.0000    -0.0000     0.0000 </r>
      <r>    20.5388     0.0460     0.0460     0.0460    -0.0000    -0.0000     0.0000 </r>
      <r>    20.6366     0.0645     0.0645     0.0645    -0.0000    -0.0000     0.0000 </r>
      <r>    20.7344     0.0854     0.0854     0.0854    -0.0000    -0.0000     0.0000 </r>
      <r>    20.8322     0.0751     0.0751     0.0751    -0.0000    -0.0000     0.0000 </r>
      <r>    20.9300     0.0569     0.0569     0.0569    -0.0000    -0.0000     0.0000 </r>
      <r>    21.0278     0.0496     0.0496     0.0496    -0.0000    -0.0000     0.0000 </r>
      <r>    21.1256     0.0454     0.0454     0.0454    -0.0000    -0.0000     0.0000 </r>
      <r>    21.2234     0.0416     0.0416     0.0416    -0.0000    -0.0000     0.0000 </r>
      <r>    21.3212     0.0458     0.0458     0.0458    -0.0000    -0.0000     0.0000 </r>
      <r>    21.4190     0.0538     0.0538     0.0538    -0.0000    -0.0000     0.0000 </r>
      <r>    21.5168     0.0459     0.0459     0.0459    -0.0000    -0.0000     0.0000 </r>
      <r>    21.6146     0.0370     0.0370     0.0370    -0.0000    -0.0000     0.0000 </r>
      <r>    21.7124     0.0334     0.0334     0.0334    -0.0000     0.0000     0.0000 </r>
[...]
     <r>     9.7720     0.3415     0.3415     0.3415    -0.0000    -0.0000     0.0000 </r>
     <r>     9.7820     0.3139     0.3139     0.3139    -0.0000     0.0000     0.0000 </r>
     <r>     9.7920     0.2664     0.2664     0.2664    -0.0000     0.0000     0.0000 </r>
     <r>     9.8020     0.2088     0.2088     0.2088    -0.0000     0.0000     0.0000 </r>
     <r>     9.8120     0.1512     0.1512     0.1512    -0.0000     0.0000     0.0000 </r>
     <r>     9.8220     0.1011     0.1011     0.1011    -0.0000     0.0000     0.0000 </r>
     <r>     9.8320     0.0624     0.0624     0.0624    -0.0000    -0.0000     0.0000 </r>
     <r>     9.8420     0.0356     0.0356     0.0356    -0.0000    -0.0000     0.0000 </r>
     <r>     9.8520     0.0187     0.0187     0.0187    -0.0000     0.0000     0.0000 </r>
     <r>     9.8621     0.0091     0.0091     0.0091    -0.0000     0.0000     0.0000 </r>
     <r>     9.8721     0.0041     0.0041     0.0041    -0.0000    -0.0000     0.0000 </r>
     <r>     9.8821     0.0017     0.0017     0.0017    -0.0000     0.0000     0.0000 </r>
     <r>     9.8921     0.0006     0.0006     0.0006    -0.0000     0.0000     0.0000 </r>
     <r>     9.9021     0.0002     0.0002     0.0002    -0.0000     0.0000     0.0000 </r>
     <r>     9.9121     0.0001     0.0001     0.0001    -0.0000     0.0000     0.0000 </r>
     <r>     9.9221     0.0000     0.0000     0.0000    -0.0000     0.0000     0.0000 </r>
     <r>     9.9321     0.0000     0.0000     0.0000    -0.0000     0.0000     0.0000 </r>
     <r>     9.9421     0.0000     0.0000     0.0000    -0.0000     0.0000     0.0000 </r>
     <r>     9.9521     0.0000     0.0000     0.0000    -0.0000     0.0000     0.0000 </r>
     <r>     9.9622     0.0000     0.0000     0.0000    -0.0000     0.0000     0.0000 </r>
     <r>     9.9722     0.0000     0.0000     0.0000    -0.0000     0.0000     0.0000 </r>
     <r>     9.9822     0.0000     0.0000     0.0000    -0.0000    -0.0000     0.0000 </r>
     <r>     9.9922     0.0000     0.0000     0.0000    -0.0000     0.0000     0.0000 </r>
     <r>    10.0022     0.0000     0.0000     0.0000    -0.0000     0.0000     0.0000 </r>
     <r>    10.0122     0.0001     0.0001     0.0001    -0.0000    -0.0000     0.0000 </r>
     <r>    10.0222     0.0002     0.0002     0.0002    -0.0000     0.0000     0.0000 </r>
     <r>    10.0322     0.0007     0.0007     0.0007    -0.0000    -0.0000     0.0000 </r>
     <r>    10.0422     0.0017     0.0017     0.0017    -0.0000     0.0000     0.0000 </r>
     <r>    10.0522     0.0042     0.0042     0.0042    -0.0000     0.0000     0.0000 </r>
     <r>    10.0623     0.0093     0.0093     0.0093    -0.0000     0.0000     0.0000 </r>
     <r>    10.0723     0.0191     0.0191     0.0191    -0.0000     0.0000     0.0000 </r>
     <r>    10.0823     0.0363     0.0363     0.0363    -0.0000    -0.0000     0.0000 </r>
     <r>    10.0923     0.0637     0.0637     0.0637    -0.0000    -0.0000     0.0000 </r>
     <r>    10.1023     0.1032     0.1032     0.1032    -0.0000     0.0000     0.0000 </r>
     <r>    10.1123     0.1546     0.1546     0.1546    -0.0000    -0.0000     0.0000 </r>
     <r>    10.1223     0.2137     0.2137     0.2137    -0.0000     0.0000     0.0000 </r>
     <r>    10.1323     0.2729     0.2729     0.2729    -0.0000     0.0000     0.0000 </r>
     <r>    10.1423     0.3218     0.3218     0.3218    -0.0000     0.0000     0.0000 </r>
     <r>    10.1523     0.3504     0.3504     0.3504    -0.0000     0.0000     0.0000 </r>
     <r>    10.1624     0.3524     0.3524     0.3524    -0.0000    -0.0000     0.0000 </r>
     <r>    10.1724     0.3272     0.3272     0.3272    -0.0000    -0.0000     0.0000 </r>
     <r>    10.1824     0.2806     0.2806     0.2806    -0.0000    -0.0000     0.0000 </r>
     <r>    10.1924     0.2222     0.2222     0.2222    -0.0000    -0.0000     0.0000 </r>
     <r>    10.2024     0.1625     0.1625     0.1625    -0.0000    -0.0000     0.0000 </r>
    </set>
   </array>
  </conductivity>
  <dos>
   <i name="efermi">      5.20239189 </i>
   <total>
    <array>
     <dimension dim="1">gridpoints</dimension>
     <dimension dim="2">spin</dimension>
     <field>energy</field>
     <field>total</field>
     <field>integrated</field>
     <set>
      <set comment="spin 1">
       <r>   -10.9937     0.0000     0.0000 </r>
       <r>   -10.6952     0.0000     0.0000 </r>
       <r>   -10.3966     0.0000     0.0000 </r>
       <r>   -10.0981     0.0000     0.0000 </r>
       <r>    -9.7995     0.0000     0.0000 </r>
       <r>    -9.5010     0.0000     0.0000 </r>
       <r>    -9.2024     0.0000     0.0000 </r>
       <r>    -8.9039     0.0000     0.0000 </r>
       <r>    -8.6053     0.0000     0.0000 </r>
       <r>    -8.3068     0.0000     0.0000 </r>
       <r>    -8.0083     0.0000     0.0000 </r>
       <r>    -7.7097     0.0000     0.0000 </r>
       <r>    -7.4112     0.0000     0.0000 </r>
       <r>    -7.1126     0.0000     0.0000 </r>
       <r>    -6.8141     0.0310     0.0092 </r>
       <r>    -6.5155     0.2332     0.0789 </r>
       <r>    -6.2170     0.2010     0.1389 </r>
       <r>    -5.9184     0.3618     0.2469 </r>
       <r>    -5.6199     0.5669     0.4161 </r>
       <r>    -5.3213     0.4360     0.5463 </r>
       <r>    -5.0228     0.1330     0.5860 </r>
       <r>    -4.7242     0.8400     0.8368 </r>
       <r>    -4.4257     1.5243     1.2919 </r>
       <r>    -4.1272     0.0458     1.3056 </r>
       <r>    -3.8286     0.7294     1.5233 </r>
       <r>    -3.5301     1.1315     1.8611 </r>
       <r>    -3.2315     0.0000     1.8611 </r>
       <r>    -2.9330     0.0005     1.8613 </r>
       <r>    -2.6344     0.9265     2.1379 </r>
       <r>    -2.3359     0.0034     2.1389 </r>
       <r>    -2.0373     0.0000     2.1389 </r>
       <r>    -1.7388     1.2166     2.5021 </r>
       <r>    -1.4402     1.5122     2.9537 </r>
       <r>    -1.1417     0.0000     2.9537 </r>
       <r>    -0.8432     0.7443     3.1759 </r>
       <r>    -0.5446     0.7443     3.3981 </r>
       <r>    -0.2461     0.2383     3.4693 </r>
       <r>     0.0525     0.1959     3.5278 </r>
       <r>     0.3510     0.0000     3.5278 </r>
       <r>     0.6496     0.7607     3.7549 </r>
       <r>     0.9481     0.3550     3.8611 </r>
       <r>     1.2467     0.9344     4.1401 </r>
       <r>     1.5452     2.2596     4.8147 </r>
       <r>     1.8438     0.1555     4.8611 </r>
       <r>     2.1423     0.7768     5.0930 </r>
       <r>     2.4408     1.8217     5.6369 </r>
       <r>     2.7394     1.9540     6.2202 </r>
       <r>     3.0379     1.4757     6.6610 </r>
       <r>     3.3365     1.6565     7.1556 </r>
       <r>     3.6350     0.1339     7.1956 </r>
       <r>     3.9336     1.3868     7.6096 </r>
       <r>     4.2321     0.3461     7.7130 </r>
       <r>     4.5307     0.8180     7.9572 </r>
       <r>     4.8292     0.0518     7.9726 </r>
       <r>     5.1278     0.0916     8.0000 </r>
       <r>     5.4263     0.0000     8.0000 </r>
       <r>     5.7248     0.0000     8.0000 </r>
       <r>     6.0234     0.3706     8.1107 </r>
       <r>     6.3219     0.6789     8.3133 </r>
       <r>     6.6205     0.1622     8.3617 </r>
       <r>     6.9190     0.8214     8.6070 </r>
       <r>     7.2176     1.3350     9.0055 </r>
       <r>     7.5161     0.6224     9.1917 </r>
       <r>     7.8147     0.8396     9.4423 </r>
       <r>     8.1132     2.3522    10.1446 </r>
       <r>     8.4118     0.7558    10.3702 </r>
       <r>     8.7103     2.4127    11.0906 </r>
       <r>     9.0088     1.3083    11.4812 </r>
       <r>     9.3074     2.5083    12.2303 </r>
       <r>     9.6059     1.8984    12.7975 </r>
       <r>     9.9045     1.3606    13.2037 </r>
       <r>    10.2030     0.6858    13.4084 </r>
       <r>    10.5016     0.3065    13.5000 </r>
       <r>    10.8001     0.3111    13.5929 </r>
       <r>    11.0987     0.4338    13.7224 </r>
       <r>    11.3972     1.1002    14.0509 </r>
       <r>    11.6958     1.9583    14.6355 </r>
       <r>    11.9943     0.8516    14.8898 </r>
       <r>    12.2928     1.5811    15.3618 </r>
       <r>    12.5914     4.0348    16.5664 </r>
       <r>    12.8899     0.8466    16.8193 </r>
       <r>    13.1885     0.8556    17.0747 </r>
       <r>    13.4870     0.2645    17.1537 </r>
       <r>    13.7856     0.0124    17.1574 </r>
       <r>    14.0841     0.4366    17.2878 </r>
       <r>    14.3827     2.3148    17.9788 </r>
       <r>    14.6812     1.8211    18.5225 </r>
       <r>    14.9798     0.6467    18.7156 </r>
       <r>    15.2783     0.8596    18.9722 </r>
       <r>    15.5769     0.7006    19.1814 </r>
       <r>    15.8754     3.6400    20.2681 </r>
       <r>    16.1739     0.9756    20.5594 </r>
       <r>    16.4725     0.4934    20.7067 </r>
       <r>    16.7710     1.1086    21.0376 </r>
       <r>    17.0696     2.3450    21.7377 </r>
       <r>    17.3681     0.2818    21.8219 </r>
       <r>    17.6667     1.1137    22.1544 </r>
       <r>    17.9652     2.4853    22.8964 </r>
       <r>    18.2638     2.6312    23.6819 </r>
       <r>    18.5623     1.4583    24.1173 </r>
       <r>    18.8609     1.8577    24.6719 </r>
       <r>    19.1594     0.9220    24.9472 </r>
       <r>    19.4579     0.2388    25.0185 </r>
       <r>    19.7565     0.8602    25.2754 </r>
       <r>    20.0550     1.8734    25.8347 </r>
       <r>    20.3536     0.9430    26.1169 </r>
       <r>    20.6521     1.5578    26.5820 </r>
       <r>    20.9507     1.8144    27.1236 </r>
       <r>    21.2492     2.5112    27.8734 </r>
       <r>    21.5478     1.9865    28.4664 </r>
       <r>    21.8463     2.2208    29.1295 </r>
       <r>    22.1449     1.5225    29.5840 </r>
       <r>    22.4434     1.4897    30.0291 </r>
       <r>    22.7419     0.6124    30.2123 </r>
       <r>    23.0405     1.7827    30.7445 </r>
       <r>    23.3390     1.7694    31.2730 </r>
       <r>    23.6376     0.3150    31.3670 </r>
       <r>    23.9361     2.4323    32.0931 </r>
       <r>    24.2347     2.0900    32.7171 </r>
       <r>    24.5332     0.5002    32.8665 </r>
       <r>    24.8318     1.7127    33.3778 </r>
       <r>    25.1303     2.4629    34.1131 </r>
       <r>    25.4289     0.8776    34.3751 </r>
       <r>    25.7274     3.9766    35.5623 </r>
       <r>    26.0259     1.8067    36.1017 </r>
       <r>    26.3245     1.6065    36.5816 </r>
       <r>    26.6230     0.9983    36.8796 </r>
       <r>    26.9216     2.9608    37.7636 </r>
       <r>    27.2201     0.2406    37.8354 </r>
       <r>    27.5187     1.5996    38.3130 </r>
       <r>    27.8172     1.5632    38.7797 </r>
       <r>    28.1158     2.0087    39.3794 </r>
       <r>    28.4143     1.7714    39.9082 </r>
       <r>    28.7129     1.6643    40.4051 </r>
       <r>    29.0114     1.3472    40.8072 </r>
       <r>    29.3099     2.8477    41.6574 </r>
       <r>    29.6085     0.4032    41.7778 </r>
       <r>    29.9070     1.1504    42.1213 </r>
       <r>    30.2056     1.3516    42.5248 </r>
       <r>    30.5041     1.0976    42.8525 </r>
       <r>    30.8027     1.9466    43.4336 </r>
       <r>    31.1012     0.8708    43.6936 </r>
       <r>    31.3998     1.6184    44.1768 </r>
       <r>    31.6983     2.1939    44.8317 </r>
       <r>    31.9969     3.0728    45.7491 </r>
       <r>    32.2954     1.4453    46.1806 </r>
       <r>    32.5939     2.2535    46.8534 </r>
       <r>    32.8925     2.9345    47.7295 </r>
       <r>    33.1910     0.1307    47.7685 </r>
       <r>    33.4896     0.6190    47.9533 </r>
       <r>    33.7881     2.8418    48.8017 </r>
       <r>    34.0867     0.6380    48.9922 </r>
       <r>    34.3852     1.3762    49.4031 </r>
       <r>    34.6838     2.7878    50.2354 </r>
       <r>    34.9823     2.7026    51.0423 </r>
       <r>    35.2809     2.6528    51.8344 </r>
       <r>    35.5794     2.0235    52.4385 </r>
       <r>    35.8780     1.2604    52.8148 </r>
       <r>    36.1765     1.5138    53.2668 </r>
       <r>    36.4750     1.4611    53.7030 </r>
       <r>    36.7736     1.6278    54.1889 </r>
       <r>    37.0721     2.1775    54.8390 </r>
       <r>    37.3707     3.1093    55.7674 </r>
       <r>    37.6692     3.1103    56.6961 </r>
       <r>    37.9678     2.3494    57.3976 </r>
       <r>    38.2663     0.5436    57.5599 </r>
       <r>    38.5649     1.1882    57.9146 </r>
       <r>    38.8634     0.1191    57.9501 </r>
       <r>    39.1620     4.7815    59.3776 </r>
       <r>    39.4605     1.3362    59.7765 </r>
       <r>    39.7590     2.6655    60.5723 </r>
       <r>    40.0576     0.7322    60.7910 </r>
       <r>    40.3561     0.5163    60.9451 </r>
       <r>    40.6547     2.8293    61.7898 </r>
       <r>    40.9532     1.7038    62.2985 </r>
       <r>    41.2518     1.0035    62.5981 </r>
       <r>    41.5503     1.1821    62.9510 </r>
       <r>    41.8489     1.3457    63.3530 </r>
       <r>    42.1474     2.1569    63.9970 </r>
       <r>    42.4460     3.0097    64.8955 </r>
       <r>    42.7445     1.6731    65.3950 </r>
       <r>    43.0430     2.3259    66.0894 </r>
       <r>    43.3416     2.4194    66.8117 </r>
       <r>    43.6401     0.4782    66.9545 </r>
       <r>    43.9387     1.2359    67.3235 </r>
       <r>    44.2372     2.7879    68.1559 </r>
       <r>    44.5358     2.4157    68.8773 </r>
       <r>    44.8343     1.2338    69.2456 </r>
       <r>    45.1329     1.0724    69.5658 </r>
       <r>    45.4314     2.7763    70.3946 </r>
       <r>    45.7300     4.4300    71.7172 </r>
       <r>    46.0285     1.1341    72.0558 </r>
       <r>    46.3270     1.3483    72.4583 </r>
       <r>    46.6256     1.5511    72.9214 </r>
       <r>    46.9241     1.6041    73.4004 </r>
       <r>    47.2227     0.8897    73.6660 </r>
       <r>    47.5212     3.6734    74.7626 </r>
       <r>    47.8198     3.1424    75.7008 </r>
       <r>    48.1183     1.6151    76.1830 </r>
       <r>    48.4169     2.5206    76.9355 </r>
       <r>    48.7154     1.3123    77.3277 </r>
       <r>    49.0140     1.8229    77.8719 </r>
       <r>    49.3125     4.6963    79.2740 </r>
       <r>    49.6110     0.6638    79.4722 </r>
       <r>    49.9096     1.6308    79.9591 </r>
       <r>    50.2081     3.9700    81.1444 </r>
       <r>    50.5067     0.9331    81.4230 </r>
       <r>    50.8052     1.6479    81.9150 </r>
       <r>    51.1038     0.2825    81.9994 </r>
       <r>    51.4023     3.4748    83.0367 </r>
       <r>    51.7009     2.2759    83.7166 </r>
       <r>    51.9994     0.9492    84.0000 </r>
       <r>    52.2980     3.6953    85.1032 </r>
       <r>    52.5965     1.1047    85.4332 </r>
       <r>    52.8950     2.3712    86.1411 </r>
       <r>    53.1936     2.6120    86.9210 </r>
       <r>    53.4921     3.0241    87.8238 </r>
       <r>    53.7907     3.4566    88.8558 </r>
       <r>    54.0892     3.7659    89.9801 </r>
       <r>    54.3878     0.6870    90.1853 </r>
       <r>    54.6863     0.9133    90.4579 </r>
       <r>    54.9849     1.4678    90.8961 </r>
       <r>    55.2834     1.1060    91.2263 </r>
       <r>    55.5820     3.2706    92.2028 </r>
       <r>    55.8805     3.4968    93.2470 </r>
       <r>    56.1791     2.5205    93.9997 </r>
       <r>    56.4776     2.1100    94.6296 </r>
       <r>    56.7761     1.7534    95.1531 </r>
       <r>    57.0747     1.1618    95.5000 </r>
       <r>    57.3732     0.0930    95.5278 </r>
       <r>    57.6718     0.6152    95.7114 </r>
       <r>    57.9703     2.6085    96.4903 </r>
       <r>    58.2689     1.4059    96.9100 </r>
       <r>    58.5674     2.7734    97.7380 </r>
       <r>    58.8660     4.0273    98.9403 </r>
       <r>    59.1645     1.9122    99.5113 </r>
       <r>    59.4631     1.7919   100.0462 </r>
       <r>    59.7616     1.5879   100.5204 </r>
       <r>    60.0601     2.3572   101.2241 </r>
       <r>    60.3587     2.0994   101.8511 </r>
       <r>    60.6572     3.3190   102.8421 </r>
       <r>    60.9558     2.7187   103.6537 </r>
       <r>    61.2543     4.4515   104.9828 </r>
       <r>    61.5529     0.3096   105.0756 </r>
       <r>    61.8514     1.7884   105.6095 </r>
       <r>    62.1500     1.4668   106.0474 </r>
       <r>    62.4485     1.9824   106.6392 </r>
       <r>    62.7471     3.5960   107.7131 </r>
       <r>    63.0456     2.6349   108.4997 </r>
       <r>    63.3441     3.6514   109.5901 </r>
       <r>    63.6427     1.6977   110.0969 </r>
       <r>    63.9412     4.1015   111.3214 </r>
       <r>    64.2398     2.0313   111.9279 </r>
       <r>    64.5383     1.6981   112.4352 </r>
       <r>    64.8369     4.7799   113.8623 </r>
       <r>    65.1354     2.6039   114.6397 </r>
       <r>    65.4340     1.8141   115.1813 </r>
       <r>    65.7325     1.6913   115.6862 </r>
       <r>    66.0311     2.1797   116.3369 </r>
       <r>    66.3296     0.4303   116.4658 </r>
       <r>    66.6281     1.5289   116.9222 </r>
       <r>    66.9267     1.8966   117.4884 </r>
       <r>    67.2252     2.8842   118.3495 </r>
       <r>    67.5238     4.3429   119.6461 </r>
       <r>    67.8223     3.2606   120.6197 </r>
       <r>    68.1209     0.7396   120.8405 </r>
       <r>    68.4194     2.4891   121.5836 </r>
       <r>    68.7180     0.8624   121.8413 </r>
       <r>    69.0165     2.2941   122.5263 </r>
       <r>    69.3151     6.2841   124.4024 </r>
       <r>    69.6136     3.3958   125.4162 </r>
       <r>    69.9121     0.9939   125.7130 </r>
       <r>    70.2107     1.5659   126.1806 </r>
       <r>    70.5092     2.1798   126.8314 </r>
       <r>    70.8078     2.2116   127.4916 </r>
       <r>    71.1063     0.8362   127.7412 </r>
       <r>    71.4049     0.7561   127.9670 </r>
       <r>    71.7034     0.0175   127.9722 </r>
       <r>    72.0020     0.0000   127.9722 </r>
       <r>    72.3005     0.0000   127.9722 </r>
       <r>    72.5991     0.0000   127.9722 </r>
       <r>    72.8976     0.0000   127.9722 </r>
       <r>    73.1961     0.0000   127.9722 </r>
       <r>    73.4947     0.0000   127.9722 </r>
       <r>    73.7932     0.0000   127.9722 </r>
       <r>    74.0918     0.0000   127.9722 </r>
       <r>    74.3903     0.0001   127.9723 </r>
       <r>    74.6889     0.0929   128.0000 </r>
       <r>    74.9874     0.0000   128.0000 </r>
       <r>    75.2860     0.0000   128.0000 </r>
       <r>    75.5845     0.0000   128.0000 </r>
       <r>    75.8831     0.0000   128.0000 </r>
       <r>    76.1816     0.0000   128.0000 </r>
       <r>    76.4802     0.0000   128.0000 </r>
       <r>    76.7787     0.0000   128.0000 </r>
       <r>    77.0772     0.0000   128.0000 </r>
       <r>    77.3758     0.0000   128.0000 </r>
       <r>    77.6743     0.0000   128.0000 </r>
       <r>    77.9729     0.0000   128.0000 </r>
       <r>    78.2714     0.0000   128.0000 </r>
       <r>    78.5700     0.0000   128.0000 </r>
      </set>
     </set>
    </array>
   </total>
  </dos>
 </calculation>
 <structure name="finalpos" >
  <crystal>
   <varray name="basis" >
    <v>       2.71500000       2.71500000       0.00000000 </v>
    <v>       0.00000000       2.71500000       2.71500000 </v>
    <v>       2.71500000       0.00000000       2.71500000 </v>
   </varray>
   <i name="volume">     40.02575175 </i>
   <varray name="rec_basis" >
    <v>       0.18416206       0.18416206      -0.18416206 </v>
    <v>      -0.18416206       0.18416206       0.18416206 </v>
    <v>       0.18416206      -0.18416206       0.18416206 </v>
   </varray>
  </crystal>
  <varray name="positions" >
   <v>       0.00000000       0.00000000       0.00000000 </v>
   <v>       0.25000000       0.25000000       0.25000000 </v>
  </varray>
 </structure>
</modeling>
