   2   2   0   0
  0.2001288E+02  0.3839590E-09  0.3839590E-09  0.3839590E-09  0.5000000E-15
  1.000000000000000E-004
  CAR 
 cd Si GW0                               
     80.66496161    -10.98940299  301      5.33806385      1.00000000
    -10.989  0.0000E+00  0.0000E+00
    -10.684  0.0000E+00  0.0000E+00
    -10.378  0.0000E+00  0.0000E+00
    -10.073  0.0000E+00  0.0000E+00
     -9.767  0.0000E+00  0.0000E+00
     -9.462  0.0000E+00  0.0000E+00
     -9.156  0.0000E+00  0.0000E+00
     -8.851  0.0000E+00  0.0000E+00
     -8.545 -0.4700E-33 -0.1436E-33
     -8.240 -0.9950E-23 -0.3040E-23
     -7.934 -0.1828E-14 -0.5584E-15
     -7.629 -0.2927E-08 -0.8943E-09
     -7.323 -0.3515E-04 -0.1074E-04
     -7.018 -0.7147E-03 -0.2291E-03
     -6.712  0.1704E-01  0.4976E-02
     -6.407  0.2387E+00  0.7789E-01
     -6.101  0.1976E+00  0.1383E+00
     -5.796  0.2767E+00  0.2228E+00
     -5.490  0.6850E+00  0.4321E+00
     -5.185  0.3846E+00  0.5496E+00
     -4.879  0.1278E+00  0.5886E+00
     -4.574  0.1052E+01  0.9100E+00
     -4.268  0.1179E+01  0.1270E+01
     -3.963  0.9613E-01  0.1300E+01
     -3.657  0.8175E+00  0.1549E+01
     -3.352  0.1057E+01  0.1872E+01
     -3.046 -0.3970E-01  0.1860E+01
     -2.741  0.4326E-01  0.1873E+01
     -2.435  0.8303E+00  0.2127E+01
     -2.129  0.3110E-01  0.2137E+01
     -1.824  0.1694E+00  0.2188E+01
     -1.518  0.1547E+01  0.2661E+01
     -1.213  0.9849E+00  0.2962E+01
     -0.907  0.3545E+00  0.3070E+01
     -0.602  0.5309E+00  0.3232E+01
     -0.296  0.6520E+00  0.3432E+01
      0.009  0.1693E+00  0.3483E+01
      0.315  0.1257E+00  0.3522E+01
      0.620  0.5025E+00  0.3675E+01
      0.926  0.7566E+00  0.3906E+01
      1.231  0.6192E+00  0.4096E+01
      1.537  0.2318E+01  0.4804E+01
      1.842  0.1910E+00  0.4862E+01
      2.148  0.7892E+00  0.5103E+01
      2.453  0.1778E+01  0.5646E+01
      2.759  0.1616E+01  0.6140E+01
      3.064  0.1180E+01  0.6500E+01
      3.370  0.1714E+01  0.7024E+01
      3.675  0.4759E+00  0.7169E+01
      3.981  0.1148E+01  0.7520E+01
      4.286  0.6257E+00  0.7711E+01
      4.592  0.2441E+00  0.7786E+01
      4.897  0.6240E+00  0.7977E+01
      5.203  0.4455E-01  0.7990E+01
      5.508  0.3400E-01  0.8001E+01
      5.814 -0.1738E-02  0.8000E+01
      6.119 -0.9115E-02  0.7997E+01
      6.425  0.1731E+00  0.8050E+01
      6.730  0.3958E+00  0.8171E+01
      7.036  0.5450E+00  0.8338E+01
      7.341  0.1939E+00  0.8397E+01
      7.647  0.6595E+00  0.8598E+01
      7.952  0.1576E+01  0.9080E+01
      8.258  0.3336E+00  0.9182E+01
      8.564  0.1959E+01  0.9780E+01
      8.869  0.1069E+01  0.1011E+02
      9.175  0.1153E+01  0.1046E+02
      9.480  0.1972E+01  0.1106E+02
      9.786  0.1324E+01  0.1147E+02
     10.091  0.2229E+01  0.1215E+02
     10.397  0.2601E+01  0.1294E+02
     10.702  0.8462E+00  0.1320E+02
     11.008  0.3442E+00  0.1331E+02
     11.313  0.4078E+00  0.1343E+02
     11.619  0.7317E+00  0.1365E+02
     11.924  0.7237E+00  0.1387E+02
     12.230  0.8921E+00  0.1415E+02
     12.535  0.1638E+01  0.1465E+02
     12.841  0.8180E+00  0.1490E+02
     13.146  0.2312E+01  0.1560E+02
     13.452  0.3129E+01  0.1656E+02
     13.757  0.1401E+01  0.1699E+02
     14.063  0.3883E+00  0.1711E+02
     14.368  0.1516E+00  0.1715E+02
     14.674  0.2825E+00  0.1724E+02
     14.979  0.1262E+01  0.1762E+02
     15.285  0.2842E+01  0.1849E+02
     15.590  0.3225E+00  0.1859E+02
     15.896  0.1195E+01  0.1896E+02
     16.201  0.1346E+01  0.1937E+02
     16.507  0.2063E+01  0.2000E+02
     16.812  0.1267E+01  0.2038E+02
     17.118  0.1631E+01  0.2088E+02
     17.423  0.8266E+00  0.2114E+02
     17.729  0.1462E+01  0.2158E+02
     18.034  0.9568E+00  0.2187E+02
     18.340  0.9285E+00  0.2216E+02
     18.646  0.1804E+01  0.2271E+02
     18.951  0.4018E+01  0.2394E+02
     19.257  0.1823E+01  0.2449E+02
     19.562  0.1481E+01  0.2495E+02
     19.868  0.3382E+00  0.2505E+02
     20.173  0.4929E+00  0.2520E+02
     20.479  0.1386E+01  0.2562E+02
     20.784  0.1577E+01  0.2611E+02
     21.090  0.6740E+00  0.2631E+02
     21.395  0.1291E+01  0.2671E+02
     21.701  0.2244E+01  0.2739E+02
     22.006  0.2521E+01  0.2816E+02
     22.312  0.2458E+01  0.2891E+02
     22.617  0.1548E+01  0.2939E+02
     22.923  0.2295E+01  0.3009E+02
     23.228  0.4071E+00  0.3021E+02
     23.534  0.1923E+01  0.3080E+02
     23.839  0.2691E+01  0.3162E+02
     24.145  0.1240E+01  0.3200E+02
     24.450  0.1428E+01  0.3244E+02
     24.756  0.2482E+01  0.3319E+02
     25.061  0.2069E+01  0.3383E+02
     25.367  0.1075E+01  0.3415E+02
     25.672  0.3372E+01  0.3518E+02
     25.978  0.2792E+01  0.3604E+02
     26.283  0.1552E+01  0.3651E+02
     26.589  0.1114E+01  0.3685E+02
     26.894  0.2151E+01  0.3751E+02
     27.200  0.1281E+01  0.3790E+02
     27.505  0.1227E+01  0.3828E+02
     27.811  0.1472E+01  0.3873E+02
     28.116  0.2062E+01  0.3936E+02
     28.422  0.1919E+01  0.3994E+02
     28.727  0.1516E+01  0.4041E+02
     29.033  0.1570E+01  0.4088E+02
     29.339  0.2635E+01  0.4169E+02
     29.644  0.3908E+00  0.4181E+02
     29.950  0.1237E+01  0.4219E+02
     30.255  0.1512E+01  0.4265E+02
     30.561  0.1003E+01  0.4296E+02
     30.866  0.1632E+01  0.4345E+02
     31.172  0.1030E+01  0.4377E+02
     31.477  0.2101E+01  0.4441E+02
     31.783  0.2272E+01  0.4511E+02
     32.088  0.2681E+01  0.4592E+02
     32.394  0.1922E+01  0.4651E+02
     32.699  0.2349E+01  0.4723E+02
     33.005  0.1806E+01  0.4778E+02
     33.310 -0.8627E-01  0.4775E+02
     33.616  0.2067E+01  0.4839E+02
     33.921  0.1560E+01  0.4886E+02
     34.227  0.8188E+00  0.4911E+02
     34.532  0.2013E+01  0.4973E+02
     34.838  0.2913E+01  0.5062E+02
     35.143  0.2979E+01  0.5153E+02
     35.449  0.2541E+01  0.5230E+02
     35.754  0.1406E+01  0.5273E+02
     36.060  0.6835E+00  0.5294E+02
     36.365  0.1914E+01  0.5353E+02
     36.671  0.1585E+01  0.5401E+02
     36.976  0.2199E+01  0.5468E+02
     37.282  0.2394E+01  0.5541E+02
     37.587  0.3544E+01  0.5650E+02
     37.893  0.2303E+01  0.5720E+02
     38.198  0.1068E+01  0.5753E+02
     38.504  0.9485E+00  0.5782E+02
     38.809  0.3617E+00  0.5793E+02
     39.115  0.3824E+01  0.5910E+02
     39.420  0.2173E+01  0.5976E+02
     39.726  0.2576E+01  0.6055E+02
     40.032  0.8631E+00  0.6081E+02
     40.337  0.4963E+00  0.6096E+02
     40.643  0.2530E+01  0.6174E+02
     40.948  0.1831E+01  0.6229E+02
     41.254  0.9316E+00  0.6258E+02
     41.559  0.1092E+01  0.6291E+02
     41.865  0.1604E+01  0.6340E+02
     42.170  0.2403E+01  0.6414E+02
     42.476  0.2377E+01  0.6486E+02
     42.781  0.2186E+01  0.6553E+02
     43.087  0.2305E+01  0.6624E+02
     43.392  0.1847E+01  0.6680E+02
     43.698  0.5917E+00  0.6698E+02
     44.003  0.1454E+01  0.6742E+02
     44.309  0.3257E+01  0.6842E+02
     44.614  0.2014E+01  0.6904E+02
     44.920  0.1132E+01  0.6938E+02
     45.225  0.1301E+01  0.6978E+02
     45.531  0.3379E+01  0.7081E+02
     45.836  0.3349E+01  0.7183E+02
     46.142  0.1288E+01  0.7223E+02
     46.447  0.1361E+01  0.7264E+02
     46.753  0.1602E+01  0.7313E+02
     47.058  0.1349E+01  0.7354E+02
     47.364  0.1076E+01  0.7387E+02
     47.669  0.4887E+01  0.7537E+02
     47.975  0.2128E+01  0.7602E+02
     48.280  0.1698E+01  0.7654E+02
     48.586  0.2039E+01  0.7716E+02
     48.891  0.1214E+01  0.7753E+02
     49.197  0.4083E+01  0.7878E+02
     49.502  0.2225E+01  0.7946E+02
     49.808  0.7380E+00  0.7968E+02
     50.114  0.3989E+01  0.8090E+02
     50.419  0.1672E+01  0.8141E+02
     50.725  0.1211E+01  0.8178E+02
     51.030  0.5156E+00  0.8194E+02
     51.336  0.2861E+01  0.8281E+02
     51.641  0.2349E+01  0.8353E+02
     51.947  0.1363E+01  0.8395E+02
     52.252  0.3493E+01  0.8501E+02
     52.558  0.1173E+01  0.8537E+02
     52.863  0.2396E+01  0.8611E+02
     53.169  0.2572E+01  0.8689E+02
     53.474  0.3257E+01  0.8789E+02
     53.780  0.3378E+01  0.8892E+02
     54.085  0.3565E+01  0.9001E+02
     54.391  0.6692E+00  0.9021E+02
     54.696  0.8241E+00  0.9046E+02
     55.002  0.1622E+01  0.9096E+02
     55.307  0.1010E+01  0.9127E+02
     55.613  0.3234E+01  0.9226E+02
     55.918  0.3273E+01  0.9326E+02
     56.224  0.2865E+01  0.9413E+02
     56.529  0.1981E+01  0.9474E+02
     56.835  0.1772E+01  0.9528E+02
     57.140  0.7724E+00  0.9551E+02
     57.446  0.1206E-01  0.9552E+02
     57.751  0.1775E+01  0.9606E+02
     58.057  0.1454E+01  0.9650E+02
     58.362  0.2129E+01  0.9715E+02
     58.668  0.3403E+01  0.9819E+02
     58.973  0.3136E+01  0.9915E+02
     59.279  0.2336E+01  0.9987E+02
     59.584  0.8208E+00  0.1001E+03
     59.890  0.1953E+01  0.1007E+03
     60.195  0.2600E+01  0.1015E+03
     60.501  0.2731E+01  0.1023E+03
     60.807  0.2643E+01  0.1031E+03
     61.112  0.3623E+01  0.1043E+03
     61.418  0.2608E+01  0.1051E+03
     61.723  0.1245E+01  0.1054E+03
     62.029  0.1557E+01  0.1059E+03
     62.334  0.1582E+01  0.1064E+03
     62.640  0.3134E+01  0.1074E+03
     62.945  0.3139E+01  0.1083E+03
     63.251  0.2103E+01  0.1090E+03
     63.556  0.3544E+01  0.1100E+03
     63.862  0.2877E+01  0.1109E+03
     64.167  0.2665E+01  0.1117E+03
     64.473  0.1557E+01  0.1122E+03
     64.778  0.4429E+01  0.1136E+03
     65.084  0.3274E+01  0.1146E+03
     65.389  0.1874E+01  0.1151E+03
     65.695  0.1539E+01  0.1156E+03
     66.000  0.2064E+01  0.1162E+03
     66.306  0.8472E+00  0.1165E+03
     66.611  0.1365E+01  0.1169E+03
     66.917  0.1751E+01  0.1174E+03
     67.222  0.3056E+01  0.1184E+03
     67.528  0.4436E+01  0.1197E+03
     67.833  0.2923E+01  0.1206E+03
     68.139  0.1119E+01  0.1210E+03
     68.444  0.2124E+01  0.1216E+03
     68.750  0.8709E+00  0.1219E+03
     69.055  0.3034E+01  0.1228E+03
     69.361  0.5879E+01  0.1246E+03
     69.666  0.2966E+01  0.1255E+03
     69.972  0.8699E+00  0.1258E+03
     70.277  0.1641E+01  0.1263E+03
     70.583  0.2009E+01  0.1269E+03
     70.888  0.2346E+01  0.1276E+03
     71.194  0.6047E+00  0.1278E+03
     71.500  0.6050E+00  0.1280E+03
     71.805 -0.1150E-01  0.1280E+03
     72.111 -0.8975E-03  0.1280E+03
     72.416 -0.1413E-06  0.1280E+03
     72.722 -0.1909E-12  0.1280E+03
     73.027 -0.5729E-24  0.1280E+03
     73.333 -0.2505E-15  0.1280E+03
     73.638 -0.9456E-09  0.1280E+03
     73.944 -0.2810E-04  0.1280E+03
     74.249 -0.3188E-02  0.1280E+03
     74.555  0.6925E-01  0.1280E+03
     74.860  0.2618E-01  0.1280E+03
     75.166 -0.1288E-02  0.1280E+03
     75.471 -0.1162E-05  0.1280E+03
     75.777 -0.4305E-03  0.1280E+03
     76.082 -0.1268E+01  0.1276E+03
     76.388  0.2242E+02  0.1345E+03
     76.693  0.1929E+03  0.1934E+03
     76.999 -0.4362E+01  0.1921E+03
     77.304 -0.2429E+00  0.1920E+03
     77.610 -0.2023E-04  0.1920E+03
     77.915 -0.1265E-10  0.1920E+03
     78.221  0.0000E+00  0.1920E+03
     78.526  0.0000E+00  0.1920E+03
     78.832  0.0000E+00  0.1920E+03
     79.137  0.0000E+00  0.1920E+03
     79.443  0.0000E+00  0.1920E+03
     79.748  0.0000E+00  0.1920E+03
     80.054  0.0000E+00  0.1920E+03
     80.359  0.0000E+00  0.1920E+03
     80.665  0.0000E+00  0.1920E+03
