       N       E                     dE             d eps       ncg     rms          rms(c)
NONE   1    -0.149827930223E+02   -0.14983E+02    0.00000E+00     0   0.000E+00
   1 F= -.14982793E+02 E0= -.14982848E+02  d E =0.164149E-03
