 vasp.6.5.0 16Dec24 (build Jun 01 2025 12:18:04) complex                        
  
 executed on             LinuxIFC date 2025.06.01  15:18:43
 running   96 mpi-ranks, with    1 threads/rank, on    1 nodes
 distrk:  each k-point on   96 cores,    1 groups
 distr:  one band on NCORE=   1 cores,   96 groups


--------------------------------------------------------------------------------------------------------


 INCAR:
   SYSTEM = cd Si GW0
   ENCUT = 400
   NBANDS = 64
   NELM = 1
   ALGO = NONE
   LWAVE = F
   LCHARG = F
   LWANNIER90 = T
   NUM_WANN = 8
   WANNIER90_WIN = "
exclude_bands = 17-64

Begin Projections
Si:sp3
End Projections

# Disentanglement
dis_win_min = -7
dis_win_max = 17
dis_num_iter = 100

guiding_centres = true
"

 POTCAR:    PAW_PBE Si_GW 04May2012               
 POTCAR:    PAW_PBE Si_GW 04May2012               
   VRHFIN =Si: s2p2                                                                                 
   LEXCH  = PE                                                                                      
   EATOM  =   103.0669 eV,    7.5752 Ry                                                             
                                                                                                    
   TITEL  = PAW_PBE Si_GW 04May2012                                                                 
   LULTRA =        F    use ultrasoft PP ?                                                          
   IUNSCR =        1    unscreen: 0-lin 1-nonlin 2-no                                               
   RPACOR =    1.500    partial core radius                                                         
   POMASS =   28.085; ZVAL   =    4.000    mass and valenz                                          
   RCORE  =    1.900    outmost cutoff radius                                                       
   RWIGS  =    2.480; RWIGS  =    1.312    wigner-seitz radius (au A)                               
   ENMAX  =  245.345; ENMIN  =  184.009 eV                                                          
   ICORE  =        3    local potential                                                             
   LCOR   =        T    correct aug charges                                                         
   LPAW   =        T    paw PP                                                                      
   EAUG   =  412.952                                                                                
   DEXC   =    0.000                                                                                
   RMAX   =    1.950    core radius for proj-oper                                                   
   RAUG   =    1.300    factor for augmentation sphere                                              
   RDEP   =    1.993    radius for radial grids                                                     
   RDEPT  =    2.000    core radius for aug-charge                                                  
                                                                                                    
   Atomic configuration                                                                             
    7 entries                                                                                       
     n  l   j            E        occ.                                                              
     1  0  0.50     -1785.8828   2.0000                                                             
     2  0  0.50      -139.4969   2.0000                                                             
     2  1  1.50       -95.5546   6.0000                                                             
     3  0  0.50       -10.8127   2.0000                                                             
     3  1  0.50        -4.0811   2.0000                                                             
     3  2  1.50        -4.0817   0.0000                                                             
     4  3  2.50        -4.0817   0.0000                                                             
   Description                                                                                      
     l       E           TYP  RCUT    TYP  RCUT                                                     
     0    -10.8127223     23  1.900                                                                 
     0     95.2407820     23  1.900                                                                 
     1     -4.0811372     23  1.900                                                                 
     1     54.4233040     23  1.900                                                                 
     2     -8.1634956     23  1.900                                                                 
     2     81.6349560     23  1.900                                                                 
     3     27.2116520     23  1.900                                                                 
  local pseudopotential read in
  partial core-charges read in
  partial kinetic energy density read in
  kinetic energy density of atom read in
  atomic valenz-charges read in
  non local Contribution for L=           0  read in
    real space projection operators read in
  non local Contribution for L=           0  read in
    real space projection operators read in
  non local Contribution for L=           1  read in
    real space projection operators read in
  non local Contribution for L=           1  read in
    real space projection operators read in
  non local Contribution for L=           2  read in
    real space projection operators read in
  non local Contribution for L=           2  read in
    real space projection operators read in
    PAW grid and wavefunctions read in
 
   number of l-projection  operators is LMAX  =           6
   number of lm-projection operators is LMMAX =          18
 
  PAW_PBE Si_GW 04May2012               :
 energy of atom  1       EATOM= -103.0669
 kinetic energy error for atom=    0.0012 (will be added to EATOM!!)
 
 
 POSCAR: cd Si
  positions in cartesian coordinates
  No initial velocities read in


 exchange-correlation table for PE
   RHO(1)=    0.500       N(1)  =     2000
   RHO(2)=  100.500       N(2)  =     4000
 


--------------------------------------------------------------------------------------------------------


 ion  position               nearest neighbor table
   1  0.000  0.000  0.000-   2 2.35   2 2.35   2 2.35   2 2.35
   2  0.250  0.250  0.250-   1 2.35   1 2.35   1 2.35   1 2.35
 
  LATTYP: Found a face centered cubic cell.
 ALAT       =     5.4300000000
  
  Lattice vectors:
  
 A1 = (   2.7150000000,   2.7150000000,   0.0000000000)
 A2 = (   0.0000000000,   2.7150000000,   2.7150000000)
 A3 = (   2.7150000000,   0.0000000000,   2.7150000000)


Analysis of symmetry for initial positions (statically):
=====================================================================
 Subroutine PRICEL returns:
 Original cell was already a primitive cell.
 

 Routine SETGRP: Setting up the symmetry group for a 
 face centered cubic supercell.


 Subroutine GETGRP returns: Found 48 space group operations
 (whereof 24 operations were pure point group operations)
 out of a pool of 48 trial point group operations.


The static configuration has the point symmetry T_d .
 The point group associated with its full space group is O_h .


Analysis of symmetry for dynamics (positions and initial velocities):
=====================================================================
 Subroutine PRICEL returns:
 Original cell was already a primitive cell.
 

 Routine SETGRP: Setting up the symmetry group for a 
 face centered cubic supercell.


 Subroutine GETGRP returns: Found 48 space group operations
 (whereof 24 operations were pure point group operations)
 out of a pool of 48 trial point group operations.


The dynamic configuration has the point symmetry T_d .
 The point group associated with its full space group is O_h .


 Subroutine INISYM returns: Found 48 space group operations
 (whereof 24 operations are pure point group operations),
 and found     1 'primitive' translations


----------------------------------------------------------------------------------------

                                     Primitive cell                                     

  volume of cell :      40.0258

  direct lattice vectors                    reciprocal lattice vectors
     2.715000000  2.715000000  0.000000000     0.184162063  0.184162063 -0.184162063
     0.000000000  2.715000000  2.715000000    -0.184162063  0.184162063  0.184162063
     2.715000000  0.000000000  2.715000000     0.184162063 -0.184162063  0.184162063

  length of vectors
     3.839589822  3.839589822  3.839589822     0.318978049  0.318978049  0.318978049

  position of ions in fractional coordinates (direct lattice)
     0.000000000  0.000000000  0.000000000
     0.250000000  0.250000000  0.250000000

  ion indices of the primitive-cell ions
   primitive index   ion index
                 1           1
                 2           2

----------------------------------------------------------------------------------------

 
 
 KPOINTS: k mesh                                  

Automatic generation of k-mesh.
 Grid dimensions read from file:
 generate k-points for:    6    6    6

 Generating k-lattice:

  Cartesian coordinates                     Fractional coordinates (reciprocal lattice)
     0.030693677  0.030693677 -0.030693677     0.166666667  0.000000000  0.000000000
    -0.030693677  0.030693677  0.030693677    -0.000000000  0.166666667 -0.000000000
     0.030693677 -0.030693677  0.030693677     0.000000000 -0.000000000  0.166666667

  Length of vectors
     0.053163008  0.053163008  0.053163008

  Shift w.r.t. Gamma in fractional coordinates (k-lattice)
     0.000000000  0.000000000  0.000000000

 
 Subroutine IBZKPT returns following result:
 ===========================================
 
 Found     16 irreducible k-points:
 
 Following reciprocal coordinates:
            Coordinates               Weight
  0.000000  0.000000  0.000000      1.000000
  0.166667  0.000000  0.000000      8.000000
  0.333333  0.000000  0.000000      8.000000
  0.500000  0.000000  0.000000      4.000000
  0.166667  0.166667  0.000000      6.000000
  0.333333  0.166667  0.000000     24.000000
  0.500000  0.166667  0.000000     24.000000
 -0.333333  0.166667  0.000000     24.000000
 -0.166667  0.166667  0.000000     12.000000
  0.333333  0.333333  0.000000      6.000000
  0.500000  0.333333  0.000000     24.000000
 -0.333333  0.333333  0.000000     12.000000
  0.500000  0.500000  0.000000      3.000000
  0.500000  0.333333  0.166667     24.000000
 -0.333333  0.333333  0.166667     24.000000
 -0.333333  0.500000  0.166667     12.000000
 
 Following cartesian coordinates:
            Coordinates               Weight
  0.000000  0.000000  0.000000      1.000000
  0.166667  0.166667 -0.166667      8.000000
  0.333333  0.333333 -0.333333      8.000000
  0.500000  0.500000 -0.500000      4.000000
  0.000000  0.333333  0.000000      6.000000
  0.166667  0.500000 -0.166667     24.000000
  0.333333  0.666667 -0.333333     24.000000
 -0.500000 -0.166667  0.500000     24.000000
 -0.333333  0.000000  0.333333     12.000000
  0.000000  0.666667  0.000000      6.000000
  0.166667  0.833333 -0.166667     24.000000
 -0.666667  0.000000  0.666667     12.000000
  0.000000  1.000000  0.000000      3.000000
  0.333333  0.666667  0.000000     24.000000
 -0.500000 -0.166667  0.833333     24.000000
 -0.666667  0.000000  1.000000     12.000000
 
 
 Subroutine IBZKPT_HF returns following result:
 ==============================================
 
 Found    216 k-points in 1st BZ
 the following    216 k-points will be used (e.g. in the exchange kernel)
 Following reciprocal coordinates:   # in IRBZ
  0.000000  0.000000  0.000000    0.00462963   1 t-inv F
  0.166667  0.000000  0.000000    0.00462963   2 t-inv F
  0.333333  0.000000  0.000000    0.00462963   3 t-inv F
  0.500000  0.000000  0.000000    0.00462963   4 t-inv F
  0.166667  0.166667  0.000000    0.00462963   5 t-inv F
  0.333333  0.166667  0.000000    0.00462963   6 t-inv F
  0.500000  0.166667  0.000000    0.00462963   7 t-inv F
 -0.333333  0.166667  0.000000    0.00462963   8 t-inv F
 -0.166667  0.166667  0.000000    0.00462963   9 t-inv F
  0.333333  0.333333  0.000000    0.00462963  10 t-inv F
  0.500000  0.333333  0.000000    0.00462963  11 t-inv F
 -0.333333  0.333333  0.000000    0.00462963  12 t-inv F
  0.500000  0.500000  0.000000    0.00462963  13 t-inv F
  0.500000  0.333333  0.166667    0.00462963  14 t-inv F
 -0.333333  0.333333  0.166667    0.00462963  15 t-inv F
 -0.333333  0.500000  0.166667    0.00462963  16 t-inv F
  0.000000  0.166667  0.000000    0.00462963   2 t-inv F
  0.000000  0.000000  0.166667    0.00462963   2 t-inv F
 -0.166667 -0.166667 -0.166667    0.00462963   2 t-inv F
 -0.166667 -0.000000 -0.000000    0.00462963   2 t-inv F
 -0.000000 -0.166667 -0.000000    0.00462963   2 t-inv F
 -0.000000 -0.000000 -0.166667    0.00462963   2 t-inv F
  0.166667  0.166667  0.166667    0.00462963   2 t-inv F
  0.000000  0.333333  0.000000    0.00462963   3 t-inv F
  0.000000  0.000000  0.333333    0.00462963   3 t-inv F
 -0.333333 -0.333333 -0.333333    0.00462963   3 t-inv F
 -0.333333 -0.000000 -0.000000    0.00462963   3 t-inv F
 -0.000000 -0.333333 -0.000000    0.00462963   3 t-inv F
 -0.000000 -0.000000 -0.333333    0.00462963   3 t-inv F
  0.333333  0.333333  0.333333    0.00462963   3 t-inv F
  0.000000  0.500000  0.000000    0.00462963   4 t-inv F
  0.000000  0.000000  0.500000    0.00462963   4 t-inv F
 -0.500000 -0.500000 -0.500000    0.00462963   4 t-inv F
  0.000000  0.166667  0.166667    0.00462963   5 t-inv F
  0.166667  0.000000  0.166667    0.00462963   5 t-inv F
 -0.166667 -0.166667  0.000000    0.00462963   5 t-inv F
 -0.166667  0.000000 -0.166667    0.00462963   5 t-inv F
  0.000000 -0.166667 -0.166667    0.00462963   5 t-inv F
  0.000000  0.333333  0.166667    0.00462963   6 t-inv F
  0.166667  0.000000  0.333333    0.00462963   6 t-inv F
 -0.166667 -0.166667  0.166667    0.00462963   6 t-inv F
 -0.333333 -0.166667 -0.333333    0.00462963   6 t-inv F
  0.166667  0.333333 -0.000000    0.00462963   6 t-inv F
  0.166667 -0.166667 -0.166667    0.00462963   6 t-inv F
 -0.333333 -0.333333 -0.166667    0.00462963   6 t-inv F
 -0.000000  0.166667  0.333333    0.00462963   6 t-inv F
 -0.166667  0.166667 -0.166667    0.00462963   6 t-inv F
 -0.166667 -0.333333 -0.333333    0.00462963   6 t-inv F
  0.333333 -0.000000  0.166667    0.00462963   6 t-inv F
 -0.333333 -0.166667 -0.000000    0.00462963   6 t-inv F
 -0.000000 -0.333333 -0.166667    0.00462963   6 t-inv F
 -0.166667 -0.000000 -0.333333    0.00462963   6 t-inv F
  0.166667  0.166667 -0.166667    0.00462963   6 t-inv F
  0.333333  0.166667  0.333333    0.00462963   6 t-inv F
 -0.166667 -0.333333  0.000000    0.00462963   6 t-inv F
 -0.166667  0.166667  0.166667    0.00462963   6 t-inv F
  0.333333  0.333333  0.166667    0.00462963   6 t-inv F
  0.000000 -0.166667 -0.333333    0.00462963   6 t-inv F
  0.166667 -0.166667  0.166667    0.00462963   6 t-inv F
  0.166667  0.333333  0.333333    0.00462963   6 t-inv F
 -0.333333  0.000000 -0.166667    0.00462963   6 t-inv F
  0.000000  0.500000  0.166667    0.00462963   7 t-inv F
  0.166667  0.000000  0.500000    0.00462963   7 t-inv F
 -0.166667 -0.166667  0.333333    0.00462963   7 t-inv F
 -0.500000 -0.333333 -0.500000    0.00462963   7 t-inv F
  0.166667  0.500000 -0.000000    0.00462963   7 t-inv F
  0.333333 -0.166667 -0.166667    0.00462963   7 t-inv F
 -0.500000 -0.500000 -0.333333    0.00462963   7 t-inv F
 -0.000000  0.166667  0.500000    0.00462963   7 t-inv F
 -0.166667  0.333333 -0.166667    0.00462963   7 t-inv F
 -0.333333 -0.500000 -0.500000    0.00462963   7 t-inv F
  0.500000 -0.000000  0.166667    0.00462963   7 t-inv F
 -0.500000 -0.166667 -0.000000    0.00462963   7 t-inv F
 -0.000000 -0.500000 -0.166667    0.00462963   7 t-inv F
 -0.166667 -0.000000 -0.500000    0.00462963   7 t-inv F
  0.166667  0.166667 -0.333333    0.00462963   7 t-inv F
  0.500000  0.333333  0.500000    0.00462963   7 t-inv F
 -0.166667 -0.500000  0.000000    0.00462963   7 t-inv F
 -0.333333  0.166667  0.166667    0.00462963   7 t-inv F
  0.500000  0.500000  0.333333    0.00462963   7 t-inv F
  0.000000 -0.166667 -0.500000    0.00462963   7 t-inv F
  0.166667 -0.333333  0.166667    0.00462963   7 t-inv F
  0.333333  0.500000  0.500000    0.00462963   7 t-inv F
 -0.500000  0.000000 -0.166667    0.00462963   7 t-inv F
  0.000000 -0.333333  0.166667    0.00462963   8 t-inv F
  0.166667  0.000000 -0.333333    0.00462963   8 t-inv F
 -0.166667 -0.166667 -0.500000    0.00462963   8 t-inv F
  0.333333  0.500000  0.333333    0.00462963   8 t-inv F
  0.166667 -0.333333 -0.000000    0.00462963   8 t-inv F
 -0.500000 -0.166667 -0.166667    0.00462963   8 t-inv F
  0.333333  0.333333  0.500000    0.00462963   8 t-inv F
 -0.000000  0.166667 -0.333333    0.00462963   8 t-inv F
 -0.166667 -0.500000 -0.166667    0.00462963   8 t-inv F
  0.500000  0.333333  0.333333    0.00462963   8 t-inv F
 -0.333333 -0.000000  0.166667    0.00462963   8 t-inv F
  0.333333 -0.166667 -0.000000    0.00462963   8 t-inv F
 -0.000000  0.333333 -0.166667    0.00462963   8 t-inv F
 -0.166667 -0.000000  0.333333    0.00462963   8 t-inv F
  0.166667  0.166667  0.500000    0.00462963   8 t-inv F
 -0.333333 -0.500000 -0.333333    0.00462963   8 t-inv F
 -0.166667  0.333333  0.000000    0.00462963   8 t-inv F
  0.500000  0.166667  0.166667    0.00462963   8 t-inv F
 -0.333333 -0.333333 -0.500000    0.00462963   8 t-inv F
  0.000000 -0.166667  0.333333    0.00462963   8 t-inv F
  0.166667  0.500000  0.166667    0.00462963   8 t-inv F
 -0.500000 -0.333333 -0.333333    0.00462963   8 t-inv F
  0.333333  0.000000 -0.166667    0.00462963   8 t-inv F
  0.000000 -0.166667  0.166667    0.00462963   9 t-inv F
  0.166667  0.000000 -0.166667    0.00462963   9 t-inv F
 -0.166667 -0.166667 -0.333333    0.00462963   9 t-inv F
  0.166667  0.333333  0.166667    0.00462963   9 t-inv F
  0.166667 -0.166667 -0.000000    0.00462963   9 t-inv F
 -0.333333 -0.166667 -0.166667    0.00462963   9 t-inv F
  0.166667  0.166667  0.333333    0.00462963   9 t-inv F
 -0.000000  0.166667 -0.166667    0.00462963   9 t-inv F
 -0.166667 -0.333333 -0.166667    0.00462963   9 t-inv F
  0.333333  0.166667  0.166667    0.00462963   9 t-inv F
 -0.166667 -0.000000  0.166667    0.00462963   9 t-inv F
  0.000000  0.333333  0.333333    0.00462963  10 t-inv F
  0.333333  0.000000  0.333333    0.00462963  10 t-inv F
 -0.333333 -0.333333  0.000000    0.00462963  10 t-inv F
 -0.333333 -0.000000 -0.333333    0.00462963  10 t-inv F
  0.000000 -0.333333 -0.333333    0.00462963  10 t-inv F
  0.000000  0.500000  0.333333    0.00462963  11 t-inv F
  0.333333  0.000000  0.500000    0.00462963  11 t-inv F
 -0.333333 -0.333333  0.166667    0.00462963  11 t-inv F
 -0.500000 -0.166667 -0.500000    0.00462963  11 t-inv F
  0.333333  0.500000 -0.000000    0.00462963  11 t-inv F
  0.166667 -0.333333 -0.333333    0.00462963  11 t-inv F
 -0.500000 -0.500000 -0.166667    0.00462963  11 t-inv F
 -0.000000  0.333333  0.500000    0.00462963  11 t-inv F
 -0.333333  0.166667 -0.333333    0.00462963  11 t-inv F
 -0.166667 -0.500000 -0.500000    0.00462963  11 t-inv F
  0.500000 -0.000000  0.333333    0.00462963  11 t-inv F
 -0.500000 -0.333333 -0.000000    0.00462963  11 t-inv F
 -0.000000 -0.500000 -0.333333    0.00462963  11 t-inv F
 -0.333333 -0.000000 -0.500000    0.00462963  11 t-inv F
  0.333333  0.333333 -0.166667    0.00462963  11 t-inv F
  0.500000  0.166667  0.500000    0.00462963  11 t-inv F
 -0.333333 -0.500000  0.000000    0.00462963  11 t-inv F
 -0.166667  0.333333  0.333333    0.00462963  11 t-inv F
  0.500000  0.500000  0.166667    0.00462963  11 t-inv F
  0.000000 -0.333333 -0.500000    0.00462963  11 t-inv F
  0.333333 -0.166667  0.333333    0.00462963  11 t-inv F
  0.166667  0.500000  0.500000    0.00462963  11 t-inv F
 -0.500000  0.000000 -0.333333    0.00462963  11 t-inv F
  0.000000 -0.333333  0.333333    0.00462963  12 t-inv F
  0.333333  0.000000 -0.333333    0.00462963  12 t-inv F
 -0.333333 -0.333333 -0.666667    0.00462963  12 t-inv F
  0.333333  0.666667  0.333333    0.00462963  12 t-inv F
  0.333333 -0.333333 -0.000000    0.00462963  12 t-inv F
 -0.666667 -0.333333 -0.333333    0.00462963  12 t-inv F
  0.333333  0.333333  0.666667    0.00462963  12 t-inv F
 -0.000000  0.333333 -0.333333    0.00462963  12 t-inv F
 -0.333333 -0.666667 -0.333333    0.00462963  12 t-inv F
  0.666667  0.333333  0.333333    0.00462963  12 t-inv F
 -0.333333 -0.000000  0.333333    0.00462963  12 t-inv F
  0.000000  0.500000  0.500000    0.00462963  13 t-inv F
  0.500000  0.000000  0.500000    0.00462963  13 t-inv F
  0.166667  0.500000  0.333333    0.00462963  14 t-inv F
  0.333333  0.166667  0.500000    0.00462963  14 t-inv F
 -0.333333 -0.166667  0.166667    0.00462963  14 t-inv F
 -0.500000 -0.166667 -0.333333    0.00462963  14 t-inv F
 -0.166667  0.333333  0.166667    0.00462963  14 t-inv F
  0.166667  0.333333 -0.166667    0.00462963  14 t-inv F
  0.166667 -0.166667 -0.333333    0.00462963  14 t-inv F
 -0.333333 -0.166667 -0.500000    0.00462963  14 t-inv F
 -0.333333 -0.500000 -0.166667    0.00462963  14 t-inv F
  0.166667 -0.166667  0.333333    0.00462963  14 t-inv F
  0.166667 -0.333333 -0.166667    0.00462963  14 t-inv F
 -0.166667  0.166667  0.333333    0.00462963  14 t-inv F
 -0.333333  0.166667 -0.166667    0.00462963  14 t-inv F
 -0.500000 -0.333333 -0.166667    0.00462963  14 t-inv F
 -0.166667 -0.333333 -0.500000    0.00462963  14 t-inv F
  0.333333  0.166667 -0.166667    0.00462963  14 t-inv F
 -0.166667  0.166667 -0.333333    0.00462963  14 t-inv F
  0.333333 -0.166667  0.166667    0.00462963  14 t-inv F
 -0.166667 -0.333333  0.166667    0.00462963  14 t-inv F
 -0.166667 -0.500000 -0.333333    0.00462963  14 t-inv F
  0.500000  0.166667  0.333333    0.00462963  14 t-inv F
  0.333333  0.500000  0.166667    0.00462963  14 t-inv F
  0.166667  0.333333  0.500000    0.00462963  14 t-inv F
  0.166667 -0.333333  0.333333    0.00462963  15 t-inv F
  0.333333  0.166667 -0.333333    0.00462963  15 t-inv F
 -0.333333 -0.166667 -0.666667    0.00462963  15 t-inv F
  0.333333  0.666667  0.500000    0.00462963  15 t-inv F
 -0.166667 -0.500000  0.166667    0.00462963  15 t-inv F
  0.166667 -0.500000 -0.166667    0.00462963  15 t-inv F
 -0.666667 -0.166667 -0.333333    0.00462963  15 t-inv F
  0.500000  0.666667  0.333333    0.00462963  15 t-inv F
  0.500000  0.333333  0.666667    0.00462963  15 t-inv F
  0.166667 -0.166667 -0.500000    0.00462963  15 t-inv F
 -0.666667 -0.333333 -0.166667    0.00462963  15 t-inv F
 -0.166667  0.166667 -0.500000    0.00462963  15 t-inv F
 -0.333333 -0.666667 -0.166667    0.00462963  15 t-inv F
  0.333333  0.500000  0.666667    0.00462963  15 t-inv F
  0.666667  0.500000  0.333333    0.00462963  15 t-inv F
 -0.500000  0.166667 -0.166667    0.00462963  15 t-inv F
 -0.166667 -0.666667 -0.333333    0.00462963  15 t-inv F
 -0.500000 -0.166667  0.166667    0.00462963  15 t-inv F
 -0.166667 -0.333333 -0.666667    0.00462963  15 t-inv F
  0.666667  0.333333  0.500000    0.00462963  15 t-inv F
 -0.333333  0.166667  0.333333    0.00462963  15 t-inv F
  0.333333 -0.333333  0.166667    0.00462963  15 t-inv F
  0.166667  0.333333 -0.333333    0.00462963  15 t-inv F
  0.166667 -0.333333  0.500000    0.00462963  16 t-inv F
  0.500000  0.166667 -0.333333    0.00462963  16 t-inv F
 -0.500000 -0.333333 -0.833333    0.00462963  16 t-inv F
  0.333333  0.833333  0.500000    0.00462963  16 t-inv F
 -0.166667 -0.500000  0.333333    0.00462963  16 t-inv F
  0.333333 -0.500000 -0.166667    0.00462963  16 t-inv F
  0.500000  0.833333  0.333333    0.00462963  16 t-inv F
  0.500000  0.333333  0.833333    0.00462963  16 t-inv F
 -0.833333 -0.500000 -0.333333    0.00462963  16 t-inv F
 -0.166667  0.333333 -0.500000    0.00462963  16 t-inv F
 -0.333333 -0.833333 -0.500000    0.00462963  16 t-inv F
 -----------------------------------------------------------------------------
|                                                                             |
|           W    W    AA    RRRRR   N    N  II  N    N   GGGG   !!!           |
|           W    W   A  A   R    R  NN   N  II  NN   N  G    G  !!!           |
|           W    W  A    A  R    R  N N  N  II  N N  N  G       !!!           |
|           W WW W  AAAAAA  RRRRR   N  N N  II  N  N N  G  GGG   !            |
|           WW  WW  A    A  R   R   N   NN  II  N   NN  G    G                |
|           W    W  A    A  R    R  N    N  II  N    N   GGGG   !!!           |
|                                                                             |
|     The number of bands has been changed from the values supplied in        |
|     the INCAR file. This is a result of running the parallel version.       |
|     The orbitals not found in the WAVECAR file will be initialized with     |
|     random numbers, which is usually adequate. For correlated               |
|     calculations, however, you should redo the groundstate calculation.     |
|     I found NBANDS = 64. Now, NBANDS = 96.                                  |
|                                                                             |
 -----------------------------------------------------------------------------



--------------------------------------------------------------------------------------------------------




 Dimension of arrays:
   k-points           NKPTS =     16   k-points in BZ     NKDIM =     16   number of bands    NBANDS=     96
   number of dos      NEDOS =    301   number of ions     NIONS =      2
   non local maximal  LDIM  =      6   non local SUM 2l+1 LMDIM =     18
   total plane-waves  NPLWV =   8000
   max r-space proj   IRMAX =      1   max aug-charges    IRDMAX=  10010
   dimension x,y,z NGX =    20 NGY =   20 NGZ =   20
   dimension x,y,z NGXF=    40 NGYF=   40 NGZF=   40
   support grid    NGXF=    40 NGYF=   40 NGZF=   40
   ions per type =               2
   NGX,Y,Z   is equivalent  to a cutoff of   8.66,  8.66,  8.66 a.u.
   NGXF,Y,Z  is equivalent  to a cutoff of  17.32, 17.32, 17.32 a.u.

 SYSTEM =  cd Si GW0                               
 POSCAR =  cd Si                                   

 Startparameter for this run:
   NWRITE =      2    write-flag & timer
   PREC   = normal    normal or accurate (medium, high low for compatibility)
   ISTART =      1    job   : 0-new  1-cont  2-samecut
   ICHARG =      0    charge: 1-file 2-atom 10-const
   ISPIN  =      1    spin polarized calculation?
   LNONCOLLINEAR =      F non collinear calculations
   LSORBIT =      F    spin-orbit coupling
   INIWAV =      1    electr: 0-lowe 1-rand  2-diag
   LASPH  =      F    aspherical Exc in radial PAW
 Electronic Relaxation 1
   ENCUT  =  400.0 eV  29.40 Ry    5.42 a.u.   6.26  6.26  6.26*2*pi/ulx,y,z
   ENINI  =  400.0     initial cutoff
   ENAUG  =  413.0 eV  augmentation charge cutoff
   NELM   =      1;   NELMIN=  2; NELMDL=  0     # of ELM steps 
   EDIFF  = 0.1E-03   stopping-criterion for ELM
   LREAL  =      F    real-space projection
   NLSPLINE    = F    spline interpolate recip. space projectors
   LCOMPAT=      F    compatible to vasp.4.4
   GGA_COMPAT  = T    GGA compatible to vasp.4.4-vasp.4.6
   LMAXPAW     = -100 max onsite density
   LMAXMIX     =    2 max onsite mixed and CHGCAR
   VOSKOWN=      0    Vosko Wilk Nusair interpolation
   ROPT   =    0.00000
 Ionic relaxation
   EDIFFG = 0.1E-02   stopping-criterion for IOM
   NSW    =      0    number of steps for IOM
   NBLOCK =      1;   KBLOCK =      1    inner block; outer block 
   IBRION =     -1    ionic relax: 0-MD 1-quasi-New 2-CG
   NFREE  =      0    steps in history (QN), initial steepest desc. (CG)
   ISIF   =      2    stress and relaxation
   IWAVPR =     10    prediction:  0-non 1-charg 2-wave 3-comb
   ISYM   =      2    0-nonsym 1-usesym 2-fastsym
   LCORR  =      T    Harris-Foulkes like correction to forces

   POTIM  = 0.5000    time-step for ionic-motion
   TEIN   =    0.0    initial temperature
   TEBEG  =    0.0;   TEEND  =   0.0 temperature during run
   SMASS  =  -3.00    Nose mass-parameter (am)
   estimated Nose-frequenzy (Omega)   =  0.10E-29 period in steps = 0.13E+47 mass=  -0.337E-27a.u.
   SCALEE = 1.0000    scale energy and forces
   NPACO  =    256;   APACO  = 10.0  distance and # of slots for P.C.
   PSTRESS=    0.0 pullay stress

  Mass of Ions in am
   POMASS =  28.09
  Ionic Valenz
   ZVAL   =   4.00
  Atomic Wigner-Seitz radii
   RWIGS  =  -1.00
  virtual crystal weights 
   VCA    =   1.00
   NELECT =       8.0000    total number of electrons
   NUPDOWN=      -1.0000    fix difference up-down

 DOS related values:
   EMIN   =  10.00;   EMAX   =-10.00  energy-range for DOS
   EFERMI =   0.00;   METHOD = LEGACY      
   ISMEAR =     1;   SIGMA  =   0.20  broadening in eV -4-tet -1-fermi 0-gaus
   EFERMI_NEDOS =   21; number of points for ismear=-14 and -15

 Electronic relaxation 2 (details)
   IALGO  =      2    algorithm
   LDIAG  =      T    sub-space diagonalisation (order eigenvalues)
   LSUBROT=      F    optimize rotation matrix (better conditioning)
   TURBO    =      0    0=normal 1=particle mesh
   IRESTART =      0    0=no restart 2=restart with 2 vectors
   NREBOOT  =      0    no. of reboots
   NMIN     =      0    reboot dimension
   EREF     =   0.00    reference energy to select bands
   IMIX   =      4    mixing-type and parameters
     AMIX     =   0.40;   BMIX     =  1.00
     AMIX_MAG =   1.60;   BMIX_MAG =  1.00
     AMIN     =   0.10
     WC   =   100.;   INIMIX=   1;  MIXPRE=   1;  MAXMIX= -45

 Intra band minimization:
   WEIMIN = 0.0000     energy-eigenvalue tresh-hold
   EBREAK =  0.26E-06  absolut break condition
   DEPER  =   0.30     relativ break condition  

   TIME   =   0.40     timestep for ELM

  volume/ion in A,a.u.               =      20.01       135.05
  Fermi-wavevector in a.u.,A,eV,Ry     =   0.957176  1.808800 12.465458  0.916185
  Thomas-Fermi vector in A             =   2.086170
 
 Write flags
   LWAVE        =      F    write WAVECAR
   LDOWNSAMPLE  =      F    k-point downsampling of WAVECAR
   LCHARG       =      F    write CHGCAR
   LVTOT        =      F    write LOCPOT, total local potential
   LVHAR        =      F    write LOCPOT, Hartree potential only
   WRT_POTENTIAL= false  ! write potential to hdf5 file
   LELF         =      F    write electronic localiz. function (ELF)
   LORBIT       =      0    0 simple, 1 ext, 2 COOP (PROOUT), +10 PAW based schemes


 Python interface
   PLUGINS active      =      F    recompile with -DPLUGINS to activate
 
 Dipole corrections
   LMONO      =      F    monopole corrections only (constant potential shift)
   LDIPOL     =      F    correct potential (dipole corrections)
   IDIPOL     =      0    1-x, 2-y, 3-z, 4-all directions 
   EPSILON    =  1.0000000 bulk dielectric constant
   LVACPOTAV  =      F  vacuum potentials using an averaging scheme for the charge density
   VACPOTFLAT =  0.1000000 required flatness to determine vacuum potential
 
Coulomb truncation method
  LTRUNCATE          =      F  Coulomb kernel truncation to be used
  IDIMENSIONALITY    =      3  Dimensionality of cutoff (0 molecules / 2 surfaces)
  ISURFACE           =     -1  Direction of surface normal
  LCOARSEN           =      F  Coarsen the charge grid before padding, preferred

 
 Exchange correlation treatment:
   GGA     = PE    functional components
   XC_C    = 1    coefficients multiplying the functional components
   LIBXC   =     F    Libxc                    
   VOSKOWN =     0    Vosko Wilk Nusair interpolation
   LHFCALC =     F    Hartree Fock is set to
   LHFONE  =     F    Hartree Fock one center treatment
   AEXX    =    0.0000 exact exchange contribution

 Parameters of functionals:
   PE:
     No parameter
 
 Van der Waals corrections
   IVDW    =     0    specifies the selected vdW correction

 Linear response parameters
   LEPSILON=     F    determine dielectric tensor
   LRPA    =     F    only Hartree local field effects (RPA)
   LNABLA  =     F    use nabla operator in PAW spheres
   LVEL    =     F    velocity operator in full k-point grid
   CSHIFT  =0.1000    complex shift for real part using Kramers Kronig
   OMEGAMAX=  -1.0    maximum frequency
   DEG_THRESHOLD= 0.2000000E-02 threshold for treating states as degnerate
   RTIME   =   -0.100 relaxation time in fs
  (WPLASMAI=    0.000 imaginary part of plasma frequency in eV, 0.658/RTIME)
   DFIELD  = 0.0000000 0.0000000 0.0000000 field for delta impulse in time
 
  Optional k-point grid parameters
   LKPOINTS_OPT  =     F    use optional k-point grid
   KPOINTS_OPT_MODE=     1    mode for optional k-point grid
 
 Orbital magnetization related:
   ORBITALMAG=     F  switch on orbital magnetization
   LCHIMAG   =     F  perturbation theory with respect to B field
   DQ        =  0.001000  dq finite difference perturbation B field
   LLRAUG    =     F  two centre corrections for induced B field
   LBONE     =     F  B-component reconstruction in AE one-centre
   LVGVCALC  =     T  calculate vGv susceptibility
   LVGVAPPL  =     F  apply vGv susceptibility instead of pGv for G=0

 Random number generation:
   RANDOM_GENERATOR = DEFAULT
   PCG_SEED         = not used


--------------------------------------------------------------------------------------------------------


 Static calculation
 charge density and potential will be updated during run
 non-spin polarized calculation
 None: do nothing, only one-electron occupancies are recalculated
    band-by band algorithm
 perform Loewdin sub-space diagonalisation
    ordering is kept fixed
    before iterative eigenvector-optimisation
 modified Broyden-mixing scheme, WC =      100.0
 initial mixing is a Kerker type mixing with AMIX =  0.4000 and BMIX =      1.0000
 Hartree-type preconditioning will be used
 using additional bands           92
 reciprocal scheme for non local part
 use partial core corrections
 calculate Harris-corrections to forces 
   (improved forces if not selfconsistent)
 use gradient corrections 
 use of overlap-Matrix (Vanderbilt PP)
 Methfessel and Paxton  Order N= 1 SIGMA  =   0.20


--------------------------------------------------------------------------------------------------------


  energy-cutoff  :      400.00
  volume of cell :       40.03
      direct lattice vectors                 reciprocal lattice vectors
     2.715000000  2.715000000  0.000000000     0.184162063  0.184162063 -0.184162063
     0.000000000  2.715000000  2.715000000    -0.184162063  0.184162063  0.184162063
     2.715000000  0.000000000  2.715000000     0.184162063 -0.184162063  0.184162063

  length of vectors
     3.839589822  3.839589822  3.839589822     0.318978049  0.318978049  0.318978049


 
 old parameters found on file WAVECAR:
  energy-cutoff  :      400.00
  volume of cell :       40.03
      direct lattice vectors                 reciprocal lattice vectors
     2.715000000  2.715000000  0.000000000     0.184162063  0.184162063 -0.184162063
     0.000000000  2.715000000  2.715000000    -0.184162063  0.184162063  0.184162063
     2.715000000  0.000000000  2.715000000     0.184162063 -0.184162063  0.184162063

  length of vectors

 
 k-points in units of 2pi/SCALE and weight: k mesh                                  
   0.00000000  0.00000000  0.00000000       0.005
   0.16666667  0.16666667 -0.16666667       0.037
   0.33333333  0.33333333 -0.33333333       0.037
   0.50000000  0.50000000 -0.50000000       0.019
   0.00000000  0.33333333  0.00000000       0.028
   0.16666667  0.50000000 -0.16666667       0.111
   0.33333333  0.66666667 -0.33333333       0.111
  -0.50000000 -0.16666667  0.50000000       0.111
  -0.33333333  0.00000000  0.33333333       0.056
   0.00000000  0.66666667  0.00000000       0.028
   0.16666667  0.83333333 -0.16666667       0.111
  -0.66666667  0.00000000  0.66666667       0.056
   0.00000000  1.00000000  0.00000000       0.014
   0.33333333  0.66666667  0.00000000       0.111
  -0.50000000 -0.16666667  0.83333333       0.111
  -0.66666667  0.00000000  1.00000000       0.056
 
 k-points in reciprocal lattice and weights: k mesh                                  
   0.00000000  0.00000000  0.00000000       0.005
   0.16666667  0.00000000  0.00000000       0.037
   0.33333333  0.00000000  0.00000000       0.037
   0.50000000  0.00000000  0.00000000       0.019
   0.16666667  0.16666667  0.00000000       0.028
   0.33333333  0.16666667  0.00000000       0.111
   0.50000000  0.16666667  0.00000000       0.111
  -0.33333333  0.16666667  0.00000000       0.111
  -0.16666667  0.16666667  0.00000000       0.056
   0.33333333  0.33333333  0.00000000       0.028
   0.50000000  0.33333333  0.00000000       0.111
  -0.33333333  0.33333333  0.00000000       0.056
   0.50000000  0.50000000  0.00000000       0.014
   0.50000000  0.33333333  0.16666667       0.111
  -0.33333333  0.33333333  0.16666667       0.111
  -0.33333333  0.50000000  0.16666667       0.056
 
 position of ions in fractional coordinates (direct lattice) 
   0.00000000  0.00000000  0.00000000
   0.25000000  0.25000000  0.25000000
 
 position of ions in cartesian coordinates  (Angst):
   0.00000000  0.00000000  0.00000000
   1.35750000  1.35750000  1.35750000
 


--------------------------------------------------------------------------------------------------------


 k-point     1 :   0.0000 0.0000 0.0000  plane waves:     725
 k-point     2 :   0.1667 0.0000 0.0000  plane waves:     718
 k-point     3 :   0.3333 0.0000 0.0000  plane waves:     745
 k-point     4 :   0.5000 0.0000 0.0000  plane waves:     718
 k-point     5 :   0.1667 0.1667 0.0000  plane waves:     709
 k-point     6 :   0.3333 0.1667 0.0000  plane waves:     731
 k-point     7 :   0.5000 0.1667 0.0000  plane waves:     732
 k-point     8 :  -0.3333 0.1667 0.0000  plane waves:     726
 k-point     9 :  -0.1667 0.1667 0.0000  plane waves:     732
 k-point    10 :   0.3333 0.3333 0.0000  plane waves:     717
 k-point    11 :   0.5000 0.3333 0.0000  plane waves:     729
 k-point    12 :  -0.3333 0.3333 0.0000  plane waves:     718
 k-point    13 :   0.5000 0.5000 0.0000  plane waves:     740
 k-point    14 :   0.5000 0.3333 0.1667  plane waves:     728
 k-point    15 :  -0.3333 0.3333 0.1667  plane waves:     730
 k-point    16 :  -0.3333 0.5000 0.1667  plane waves:     718

 maximum and minimum number of plane-waves per node :       745      709

 maximum number of plane-waves:       745
 maximum index in each direction: 
   IXMAX=    6   IYMAX=    6   IZMAX=    6
   IXMIN=   -6   IYMIN=   -6   IZMIN=   -6


 serial   3D FFT for wavefunctions
 parallel 3D FFT for charge:
    minimum data exchange during FFTs selected (reduces bandwidth)


 total amount of memory used by VASP MPI-rank0    32551. kBytes
=======================================================================

   base                                    :      30000. kBytes
   nonl-proj                               :       1794. kBytes
   fftplans                                :        100. kBytes
   grid                                    :        405. kBytes
   one-center                              :         31. kBytes
   wavefun                                 :        221. kBytes
 
     INWAV:  cpu time      0.0906: real time      0.0929
 Broyden mixing: mesh for mixing (old mesh)
   NGX = 13   NGY = 13   NGZ = 13
  (NGX  = 40   NGY  = 40   NGZ  = 40)
  gives a total of   2197 points

 charge density for first step will be calculated from the start-wavefunctions


--------------------------------------------------------------------------------------------------------


 Maximum index for augmentation-charges          499 (set IRDMAX)


--------------------------------------------------------------------------------------------------------


 initial charge from wavefunction
 First call to EWALD:  gamma=   0.518
 Maximum number of real-space cells   3x   3x   3
 Maximum number of reciprocal cells   3x   3x   3

    FEWALD:  cpu time      0.0032: real time      0.0035


--------------------------------------- Ionic step        1  -------------------------------------------




--------------------------------------- Iteration      1(   1)  ---------------------------------------


    POTLOK:  cpu time      0.0088: real time      0.0088
    SETDIJ:  cpu time      0.0026: real time      0.0027
    EDDIAG:  cpu time      0.0000: real time      0.0000
       DOS:  cpu time      0.0024: real time      0.0028
    --------------------------------------------
      LOOP:  cpu time      0.0140: real time      0.0146

 eigenvalue-minimisations  :     0
 total energy-change (2. order) :-0.1498279E+02  ( 0.0000000E+00)
 number of electron       7.9999998 magnetization 
 augmentation part       -0.4859640 magnetization 

 Free energy of the ion-electron system (eV)
  ---------------------------------------------------
  alpha Z        PSCENC =         6.08881246
  Ewald energy   TEWEN  =      -228.56352493
  -Hartree energ DENC   =       -16.18704087
  -exchange      EXHF   =         0.00000000
  -V(xc)+E(xc)   XCENC  =       -18.10786305
  PAW double counting   =       268.77697357     -233.38314855
  entropy T*S    EENTRO =         0.00016415
  eigenvalues    EBANDS =         0.26134174
  atomic energy  EATOM  =       206.13149246
  Solvation  Ediel_sol  =         0.00000000
  ---------------------------------------------------
  free energy    TOTEN  =       -14.98279302 eV

  energy without entropy =      -14.98295717  energy(sigma->0) =      -14.98284774


--------------------------------------------------------------------------------------------------------




 average (electrostatic) potential at core
  the test charge radii are     1.1243
  (the norm of the test charge is              1.0000)
       1 -66.6596       2 -66.6596
 
 
 
 E-fermi :   5.3381     XC(G=0):  -9.3270     alpha+bet :-11.6158

 WARNING: Could not determine fundamental gap because eigenvalues are not
     sorted.

 Fermi energy:         5.3380638489

 k-point     1 :       0.0000    0.0000    0.0000
  band No.  band energies     occupation 
      1      -6.8233      2.00000
      2       5.1699      1.99955
      3       5.1699      1.99955
      4       5.1699      1.99955
      5       8.4884     -0.00000
      6       8.4884     -0.00000
      7       8.4884     -0.00000
      8       9.4414      0.00000
      9      13.7127      0.00000
     10      13.7127      0.00000
     11      13.3314      0.00000
     12      16.7582      0.00000
     13      16.7582      0.00000
     14      16.7582      0.00000
     15      20.4752      0.00000
     16      28.5962      0.00000
     17      28.0575      0.00000
     18      28.0575      0.00000
     19      29.1142      0.00000
     20      29.1142      0.00000
     21      30.7166      0.00000
     22      30.7166      0.00000
     23      30.7166      0.00000
     24      34.4534      0.00000
     25      34.4534      0.00000
     26      34.4534      0.00000
     27      39.7039      0.00000
     28      39.7039      0.00000
     29      39.7039      0.00000
     30      43.5713      0.00000
     31      43.5713      0.00000
     32      43.6320      0.00000
     33      45.7786      0.00000
     34      45.7786      0.00000
     35      47.5112      0.00000
     36      47.5112      0.00000
     37      47.5112      0.00000
     38      49.1953      0.00000
     39      49.1953      0.00000
     40      49.1953      0.00000
     41      49.4747      0.00000
     42      50.2830      0.00000
     43      50.2830      0.00000
     44      50.2830      0.00000
     45      50.3284      0.00000
     46      50.3284      0.00000
     47      50.3284      0.00000
     48      51.7740      0.00000
     49      51.7740      0.00000
     50      51.7740      0.00000
     51      55.7246      0.00000
     52      56.8223      0.00000
     53      56.8223      0.00000
     54      56.8223      0.00000
     55      57.2221      0.00000
     56      57.2221      0.00000
     57      57.2221      0.00000
     58      62.3023      0.00000
     59      63.2130      0.00000
     60      71.1039      0.00000
     61      71.1039      0.00000
     62      74.4989      0.00000
     63      74.4989      0.00000
     64      74.4989      0.00000
     65      76.4989      0.00000
     66      76.4989      0.00000
     67      76.4989      0.00000
     68      76.4989      0.00000
     69      76.4989      0.00000
     70      76.4989      0.00000
     71      76.4989      0.00000
     72      76.4989      0.00000
     73      76.4989      0.00000
     74      76.4989      0.00000
     75      76.4989      0.00000
     76      76.4989      0.00000
     77      76.4989      0.00000
     78      76.4989      0.00000
     79      76.4989      0.00000
     80      76.4989      0.00000
     81      76.4989      0.00000
     82      76.4989      0.00000
     83      76.4989      0.00000
     84      76.4989      0.00000
     85      76.4989      0.00000
     86      76.4989      0.00000
     87      76.4989      0.00000
     88      76.4989      0.00000
     89      76.4989      0.00000
     90      76.4989      0.00000
     91      76.4989      0.00000
     92      76.4989      0.00000
     93      76.4989      0.00000
     94      76.4989      0.00000
     95      76.4989      0.00000
     96      76.4989      0.00000

 k-point     2 :       0.1667    0.0000    0.0000
  band No.  band energies     occupation 
      1      -6.4659      2.00000
      2       2.7340      2.00000
      3       4.7102      2.00008
      4       4.7102      2.00008
      5       8.2619     -0.00000
      6       9.1406     -0.00000
      7       9.1406     -0.00000
      8      11.4364      0.00000
      9      12.9874      0.00000
     10      12.9874      0.00000
     11      14.5319      0.00000
     12      16.1323      0.00000
     13      18.7384      0.00000
     14      18.7384      0.00000
     15      22.5713      0.00000
     16      25.6083      0.00000
     17      25.0100      0.00000
     18      25.6341      0.00000
     19      28.8262      0.00000
     20      28.8262      0.00000
     21      31.3725      0.00000
     22      31.3725      0.00000
     23      32.6603      0.00000
     24      34.7721      0.00000
     25      36.2558      0.00000
     26      37.4957      0.00000
     27      37.4957      0.00000
     28      38.9809      0.00000
     29      38.9809      0.00000
     30      40.6639      0.00000
     31      40.6639      0.00000
     32      43.2733      0.00000
     33      43.2733      0.00000
     34      44.2805      0.00000
     35      46.3090      0.00000
     36      46.5497      0.00000
     37      46.8845      0.00000
     38      46.8845      0.00000
     39      48.6895      0.00000
     40      49.1886      0.00000
     41      49.1886      0.00000
     42      49.4257      0.00000
     43      50.5657      0.00000
     44      50.5800      0.00000
     45      50.5800      0.00000
     46      53.3749      0.00000
     47      53.5883      0.00000
     48      53.5883      0.00000
     49      54.8457      0.00000
     50      54.8457      0.00000
     51      56.4908      0.00000
     52      56.9301      0.00000
     53      58.2361      0.00000
     54      58.2361      0.00000
     55      60.6669      0.00000
     56      60.6669      0.00000
     57      61.5507      0.00000
     58      64.6952      0.00000
     59      66.9010      0.00000
     60      67.2829      0.00000
     61      67.2829      0.00000
     62      69.8052      0.00000
     63      70.9160      0.00000
     64      70.9160      0.00000
     65      76.4989      0.00000
     66      76.4989      0.00000
     67      76.4989      0.00000
     68      76.4989      0.00000
     69      76.4989      0.00000
     70      76.4989      0.00000
     71      76.4989      0.00000
     72      76.4989      0.00000
     73      76.4989      0.00000
     74      76.4989      0.00000
     75      76.4989      0.00000
     76      76.4989      0.00000
     77      76.4989      0.00000
     78      76.4989      0.00000
     79      76.4989      0.00000
     80      76.4989      0.00000
     81      76.4989      0.00000
     82      76.4989      0.00000
     83      76.4989      0.00000
     84      76.4989      0.00000
     85      76.4989      0.00000
     86      76.4989      0.00000
     87      76.4989      0.00000
     88      76.4989      0.00000
     89      76.4989      0.00000
     90      76.4989      0.00000
     91      76.4989      0.00000
     92      76.4989      0.00000
     93      76.4989      0.00000
     94      76.4989      0.00000
     95      76.4989      0.00000
     96      76.4989      0.00000

 k-point     3 :       0.3333    0.0000    0.0000
  band No.  band energies     occupation 
      1      -5.4623      2.00000
      2      -0.2606      2.00000
      3       4.1224      2.00000
      4       4.1224      2.00000
      5       7.6360     -0.00000
      6       9.4286      0.00000
      7       9.4286      0.00000
      8      13.5986      0.00000
      9      13.8460      0.00000
     10      13.8460      0.00000
     11      14.7080      0.00000
     12      19.2313      0.00000
     13      20.4237      0.00000
     14      20.4237      0.00000
     15      22.5463      0.00000
     16      23.1929      0.00000
     17      22.9086      0.00000
     18      27.2506      0.00000
     19      28.9517      0.00000
     20      28.9517      0.00000
     21      30.2309      0.00000
     22      31.7324      0.00000
     23      31.7324      0.00000
     24      34.6097      0.00000
     25      34.6097      0.00000
     26      34.9207      0.00000
     27      35.5881      0.00000
     28      37.8823      0.00000
     29      37.8823      0.00000
     30      39.0148      0.00000
     31      39.0148      0.00000
     32      41.0814      0.00000
     33      43.2654      0.00000
     34      43.2828      0.00000
     35      45.3785      0.00000
     36      45.3785      0.00000
     37      46.3684      0.00000
     38      46.3684      0.00000
     39      48.3000      0.00000
     40      49.1208      0.00000
     41      49.1231      0.00000
     42      49.1231      0.00000
     43      51.2136      0.00000
     44      53.3340      0.00000
     45      53.3340      0.00000
     46      55.7714      0.00000
     47      55.7714      0.00000
     48      57.8034      0.00000
     49      58.5657      0.00000
     50      58.5657      0.00000
     51      59.1379      0.00000
     52      62.2318      0.00000
     53      62.2318      0.00000
     54      62.7183      0.00000
     55      63.8890      0.00000
     56      63.8890      0.00000
     57      64.0381      0.00000
     58      65.4992      0.00000
     59      65.9871      0.00000
     60      65.9871      0.00000
     61      66.9692      0.00000
     62      66.9692      0.00000
     63      66.9910      0.00000
     64      69.1693      0.00000
     65      76.4989      0.00000
     66      76.4989      0.00000
     67      76.4989      0.00000
     68      76.4989      0.00000
     69      76.4989      0.00000
     70      76.4989      0.00000
     71      76.4989      0.00000
     72      76.4989      0.00000
     73      76.4989      0.00000
     74      76.4989      0.00000
     75      76.4989      0.00000
     76      76.4989      0.00000
     77      76.4989      0.00000
     78      76.4989      0.00000
     79      76.4989      0.00000
     80      76.4989      0.00000
     81      76.4989      0.00000
     82      76.4989      0.00000
     83      76.4989      0.00000
     84      76.4989      0.00000
     85      76.4989      0.00000
     86      76.4989      0.00000
     87      76.4989      0.00000
     88      76.4989      0.00000
     89      76.4989      0.00000
     90      76.4989      0.00000
     91      76.4989      0.00000
     92      76.4989      0.00000
     93      76.4989      0.00000
     94      76.4989      0.00000
     95      76.4989      0.00000
     96      76.4989      0.00000

 k-point     4 :       0.5000    0.0000    0.0000
  band No.  band energies     occupation 
      1      -4.5012      2.00000
      2      -1.8837      2.00000
      3       3.9066      2.00000
      4       3.9066      2.00000
      5       7.3999     -0.00000
      6       9.2460     -0.00000
      7       9.2460     -0.00000
      8      13.1663      0.00000
      9      16.4124      0.00000
     10      16.4124      0.00000
     11      17.1131      0.00000
     12      17.1808      0.00000
     13      17.1808      0.00000
     14      18.8704      0.00000
     15      25.0422      0.00000
     16      25.5116      0.00000
     17      26.8384      0.00000
     18      26.8384      0.00000
     19      26.8588      0.00000
     20      26.8588      0.00000
     21      30.8759      0.00000
     22      31.5510      0.00000
     23      31.5510      0.00000
     24      32.3728      0.00000
     25      32.3728      0.00000
     26      33.7435      0.00000
     27      36.1707      0.00000
     28      37.5378      0.00000
     29      37.5378      0.00000
     30      38.0483      0.00000
     31      38.0483      0.00000
     32      38.9576      0.00000
     33      41.8563      0.00000
     34      42.0476      0.00000
     35      46.0012      0.00000
     36      46.0012      0.00000
     37      47.8449      0.00000
     38      47.8449      0.00000
     39      48.0626      0.00000
     40      48.8755      0.00000
     41      51.2220      0.00000
     42      51.2220      0.00000
     43      53.4156      0.00000
     44      53.4156      0.00000
     45      54.1523      0.00000
     46      57.7657      0.00000
     47      57.7657      0.00000
     48      57.8905      0.00000
     49      59.3502      0.00000
     50      59.3502      0.00000
     51      59.6480      0.00000
     52      61.0821      0.00000
     53      61.0821      0.00000
     54      63.5847      0.00000
     55      63.5847      0.00000
     56      64.4196      0.00000
     57      64.4196      0.00000
     58      64.5491      0.00000
     59      66.8671      0.00000
     60      67.2739      0.00000
     61      67.8854      0.00000
     62      67.8854      0.00000
     63      69.4538      0.00000
     64      70.1182      0.00000
     65      76.4989      0.00000
     66      76.4989      0.00000
     67      76.4989      0.00000
     68      76.4989      0.00000
     69      76.4989      0.00000
     70      76.4989      0.00000
     71      76.4989      0.00000
     72      76.4989      0.00000
     73      76.4989      0.00000
     74      76.4989      0.00000
     75      76.4989      0.00000
     76      76.4989      0.00000
     77      76.4989      0.00000
     78      76.4989      0.00000
     79      76.4989      0.00000
     80      76.4989      0.00000
     81      76.4989      0.00000
     82      76.4989      0.00000
     83      76.4989      0.00000
     84      76.4989      0.00000
     85      76.4989      0.00000
     86      76.4989      0.00000
     87      76.4989      0.00000
     88      76.4989      0.00000
     89      76.4989      0.00000
     90      76.4989      0.00000
     91      76.4989      0.00000
     92      76.4989      0.00000
     93      76.4989      0.00000
     94      76.4989      0.00000
     95      76.4989      0.00000
     96      76.4989      0.00000

 k-point     5 :       0.1667    0.1667    0.0000
  band No.  band energies     occupation 
      1      -6.3445      2.00000
      2       3.1083      2.00000
      3       3.9371      2.00000
      4       3.9371      2.00000
      5       7.5227     -0.00000
      6      10.2518      0.00000
      7      10.2875      0.00000
      8      10.2875      0.00000
      9      12.5297      0.00000
     10      14.2433      0.00000
     11      15.2324      0.00000
     12      17.6204      0.00000
     13      17.6204      0.00000
     14      18.1906      0.00000
     15      23.6857      0.00000
     16      25.1274      0.00000
     17      24.5200      0.00000
     18      25.7129      0.00000
     19      26.8889      0.00000
     20      28.7737      0.00000
     21      31.5138      0.00000
     22      32.1130      0.00000
     23      32.1130      0.00000
     24      36.9574      0.00000
     25      36.9574      0.00000
     26      37.0784      0.00000
     27      37.6867      0.00000
     28      37.6867      0.00000
     29      37.9025      0.00000
     30      38.8701      0.00000
     31      41.4638      0.00000
     32      42.7155      0.00000
     33      44.5887      0.00000
     34      44.5887      0.00000
     35      45.6601      0.00000
     36      45.6829      0.00000
     37      46.7514      0.00000
     38      46.9435      0.00000
     39      46.9435      0.00000
     40      49.1352      0.00000
     41      49.1352      0.00000
     42      50.1170      0.00000
     43      51.2057      0.00000
     44      52.2292      0.00000
     45      52.6498      0.00000
     46      52.6498      0.00000
     47      53.9325      0.00000
     48      53.9724      0.00000
     49      53.9724      0.00000
     50      54.6392      0.00000
     51      54.9170      0.00000
     52      56.9583      0.00000
     53      58.6817      0.00000
     54      58.6817      0.00000
     55      61.7735      0.00000
     56      62.5051      0.00000
     57      64.0723      0.00000
     58      64.0723      0.00000
     59      65.7397      0.00000
     60      66.0658      0.00000
     61      70.1394      0.00000
     62      70.1394      0.00000
     63      70.7152      0.00000
     64      71.2815      0.00000
     65      76.4989      0.00000
     66      76.4989      0.00000
     67      76.4989      0.00000
     68      76.4989      0.00000
     69      76.4989      0.00000
     70      76.4989      0.00000
     71      76.4989      0.00000
     72      76.4989      0.00000
     73      76.4989      0.00000
     74      76.4989      0.00000
     75      76.4989      0.00000
     76      76.4989      0.00000
     77      76.4989      0.00000
     78      76.4989      0.00000
     79      76.4989      0.00000
     80      76.4989      0.00000
     81      76.4989      0.00000
     82      76.4989      0.00000
     83      76.4989      0.00000
     84      76.4989      0.00000
     85      76.4989      0.00000
     86      76.4989      0.00000
     87      76.4989      0.00000
     88      76.4989      0.00000
     89      76.4989      0.00000
     90      76.4989      0.00000
     91      76.4989      0.00000
     92      76.4989      0.00000
     93      76.4989      0.00000
     94      76.4989      0.00000
     95      76.4989      0.00000
     96      76.4989      0.00000

 k-point     6 :       0.3333    0.1667    0.0000
  band No.  band energies     occupation 
      1      -5.5357      2.00000
      2       0.6508      2.00000
      3       3.1169      2.00000
      4       3.3452      2.00000
      5       7.7624     -0.00000
      6      10.0205      0.00000
      7      10.3326      0.00000
      8      11.0179      0.00000
      9      15.1092      0.00000
     10      14.9848      0.00000
     11      15.9510      0.00000
     12      18.4286      0.00000
     13      19.4949      0.00000
     14      21.0160      0.00000
     15      21.5757      0.00000
     16      22.5584      0.00000
     17      24.8672      0.00000
     18      25.6272      0.00000
     19      26.8256      0.00000
     20      28.6414      0.00000
     21      30.6275      0.00000
     22      31.3886      0.00000
     23      32.3505      0.00000
     24      34.7696      0.00000
     25      35.0292      0.00000
     26      35.1543      0.00000
     27      36.9094      0.00000
     28      37.4289      0.00000
     29      38.2797      0.00000
     30      39.1029      0.00000
     31      40.6127      0.00000
     32      41.8521      0.00000
     33      42.7082      0.00000
     34      43.0463      0.00000
     35      44.0736      0.00000
     36      45.4583      0.00000
     37      46.5084      0.00000
     38      47.4493      0.00000
     39      49.0027      0.00000
     40      49.1532      0.00000
     41      49.9639      0.00000
     42      50.0633      0.00000
     43      51.3008      0.00000
     44      51.6636      0.00000
     45      52.9219      0.00000
     46      53.6079      0.00000
     47      55.6068      0.00000
     48      56.0272      0.00000
     49      56.1058      0.00000
     50      57.7784      0.00000
     51      59.7002      0.00000
     52      60.3357      0.00000
     53      61.6146      0.00000
     54      63.2958      0.00000
     55      63.3298      0.00000
     56      64.5175      0.00000
     57      64.6256      0.00000
     58      65.7578      0.00000
     59      67.0626      0.00000
     60      67.1630      0.00000
     61      68.2102      0.00000
     62      68.3063      0.00000
     63      69.0755      0.00000
     64      69.5337      0.00000
     65      76.4989      0.00000
     66      76.4989      0.00000
     67      76.4989      0.00000
     68      76.4989      0.00000
     69      76.4989      0.00000
     70      76.4989      0.00000
     71      76.4989      0.00000
     72      76.4989      0.00000
     73      76.4989      0.00000
     74      76.4989      0.00000
     75      76.4989      0.00000
     76      76.4989      0.00000
     77      76.4989      0.00000
     78      76.4989      0.00000
     79      76.4989      0.00000
     80      76.4989      0.00000
     81      76.4989      0.00000
     82      76.4989      0.00000
     83      76.4989      0.00000
     84      76.4989      0.00000
     85      76.4989      0.00000
     86      76.4989      0.00000
     87      76.4989      0.00000
     88      76.4989      0.00000
     89      76.4989      0.00000
     90      76.4989      0.00000
     91      76.4989      0.00000
     92      76.4989      0.00000
     93      76.4989      0.00000
     94      76.4989      0.00000
     95      76.4989      0.00000
     96      76.4989      0.00000

 k-point     7 :       0.5000    0.1667    0.0000
  band No.  band energies     occupation 
      1      -4.3456      2.00000
      2      -1.5130      2.00000
      3       2.2961      2.00000
      4       3.3064      2.00000
      5       7.8613     -0.00000
      6       9.9937      0.00000
      7      10.5417      0.00000
      8      12.2544      0.00000
      9      15.0763      0.00000
     10      16.3290      0.00000
     11      17.5023      0.00000
     12      17.7075      0.00000
     13      18.5178      0.00000
     14      21.9089      0.00000
     15      23.6215      0.00000
     16      24.5968      0.00000
     17      25.3524      0.00000
     18      25.6587      0.00000
     19      26.1421      0.00000
     20      27.8037      0.00000
     21      29.1900      0.00000
     22      31.5009      0.00000
     23      32.0125      0.00000
     24      32.4330      0.00000
     25      32.8020      0.00000
     26      34.6394      0.00000
     27      35.3864      0.00000
     28      35.6686      0.00000
     29      37.2868      0.00000
     30      38.9755      0.00000
     31      39.6346      0.00000
     32      40.4439      0.00000
     33      42.1435      0.00000
     34      42.2188      0.00000
     35      44.3574      0.00000
     36      45.5614      0.00000
     37      47.6609      0.00000
     38      48.2541      0.00000
     39      49.7846      0.00000
     40      51.1154      0.00000
     41      51.3328      0.00000
     42      51.9870      0.00000
     43      52.7608      0.00000
     44      52.9656      0.00000
     45      53.2249      0.00000
     46      55.3990      0.00000
     47      55.6839      0.00000
     48      57.7503      0.00000
     49      58.6726      0.00000
     50      59.2091      0.00000
     51      60.4883      0.00000
     52      61.1486      0.00000
     53      62.3401      0.00000
     54      62.9395      0.00000
     55      64.1368      0.00000
     56      64.8912      0.00000
     57      65.1483      0.00000
     58      65.6730      0.00000
     59      66.7119      0.00000
     60      66.8912      0.00000
     61      67.7459      0.00000
     62      69.1688      0.00000
     63      69.2484      0.00000
     64      69.3135      0.00000
     65      76.4989      0.00000
     66      76.4989      0.00000
     67      76.4989      0.00000
     68      76.4989      0.00000
     69      76.4989      0.00000
     70      76.4989      0.00000
     71      76.4989      0.00000
     72      76.4989      0.00000
     73      76.4989      0.00000
     74      76.4989      0.00000
     75      76.4989      0.00000
     76      76.4989      0.00000
     77      76.4989      0.00000
     78      76.4989      0.00000
     79      76.4989      0.00000
     80      76.4989      0.00000
     81      76.4989      0.00000
     82      76.4989      0.00000
     83      76.4989      0.00000
     84      76.4989      0.00000
     85      76.4989      0.00000
     86      76.4989      0.00000
     87      76.4989      0.00000
     88      76.4989      0.00000
     89      76.4989      0.00000
     90      76.4989      0.00000
     91      76.4989      0.00000
     92      76.4989      0.00000
     93      76.4989      0.00000
     94      76.4989      0.00000
     95      76.4989      0.00000
     96      76.4989      0.00000

 k-point     8 :      -0.3333    0.1667    0.0000
  band No.  band energies     occupation 
      1      -4.7349      2.00000
      2      -0.9159      2.00000
      3       2.0122      2.00000
      4       3.8092      2.00000
      5       8.3271     -0.00000
      6       9.9622      0.00000
      7      10.1568      0.00000
      8      13.1254      0.00000
      9      13.1749      0.00000
     10      15.1460      0.00000
     11      17.0964      0.00000
     12      18.7224      0.00000
     13      20.5401      0.00000
     14      21.2187      0.00000
     15      22.0149      0.00000
     16      23.4901      0.00000
     17      24.9694      0.00000
     18      26.8784      0.00000
     19      27.2750      0.00000
     20      28.0749      0.00000
     21      29.9260      0.00000
     22      30.2684      0.00000
     23      32.2993      0.00000
     24      32.7618      0.00000
     25      33.5546      0.00000
     26      33.6488      0.00000
     27      34.9552      0.00000
     28      37.2764      0.00000
     29      38.5071      0.00000
     30      38.9769      0.00000
     31      39.5837      0.00000
     32      40.9611      0.00000
     33      42.2012      0.00000
     34      42.7918      0.00000
     35      44.2304      0.00000
     36      45.4936      0.00000
     37      45.8848      0.00000
     38      47.5566      0.00000
     39      47.7680      0.00000
     40      50.0827      0.00000
     41      52.0703      0.00000
     42      52.6443      0.00000
     43      53.0944      0.00000
     44      53.1906      0.00000
     45      53.9155      0.00000
     46      55.0471      0.00000
     47      56.7096      0.00000
     48      58.4716      0.00000
     49      58.7430      0.00000
     50      58.7698      0.00000
     51      60.0500      0.00000
     52      60.8717      0.00000
     53      61.0969      0.00000
     54      62.7295      0.00000
     55      63.2455      0.00000
     56      63.8800      0.00000
     57      64.4790      0.00000
     58      64.7629      0.00000
     59      65.9269      0.00000
     60      67.4026      0.00000
     61      68.1164      0.00000
     62      69.3041      0.00000
     63      69.4905      0.00000
     64      70.0282      0.00000
     65      76.4989      0.00000
     66      76.4989      0.00000
     67      76.4989      0.00000
     68      76.4989      0.00000
     69      76.4989      0.00000
     70      76.4989      0.00000
     71      76.4989      0.00000
     72      76.4989      0.00000
     73      76.4989      0.00000
     74      76.4989      0.00000
     75      76.4989      0.00000
     76      76.4989      0.00000
     77      76.4989      0.00000
     78      76.4989      0.00000
     79      76.4989      0.00000
     80      76.4989      0.00000
     81      76.4989      0.00000
     82      76.4989      0.00000
     83      76.4989      0.00000
     84      76.4989      0.00000
     85      76.4989      0.00000
     86      76.4989      0.00000
     87      76.4989      0.00000
     88      76.4989      0.00000
     89      76.4989      0.00000
     90      76.4989      0.00000
     91      76.4989      0.00000
     92      76.4989      0.00000
     93      76.4989      0.00000
     94      76.4989      0.00000
     95      76.4989      0.00000
     96      76.4989      0.00000

 k-point     9 :      -0.1667    0.1667    0.0000
  band No.  band energies     occupation 
      1      -5.8845      2.00000
      2       1.3727      2.00000
      3       2.6737      2.00000
      4       4.5820      2.00000
      5       9.0016     -0.00000
      6       9.5042      0.00000
      7       9.6710      0.00000
      8      11.5527      0.00000
      9      11.9549      0.00000
     10      15.3425      0.00000
     11      16.0333      0.00000
     12      17.0775      0.00000
     13      18.9762      0.00000
     14      21.2336      0.00000
     15      21.7069      0.00000
     16      24.3610      0.00000
     17      25.5743      0.00000
     18      25.7049      0.00000
     19      26.4700      0.00000
     20      27.4734      0.00000
     21      31.4586      0.00000
     22      31.6981      0.00000
     23      33.6338      0.00000
     24      34.2504      0.00000
     25      35.7251      0.00000
     26      36.2984      0.00000
     27      36.6411      0.00000
     28      38.9819      0.00000
     29      39.1049      0.00000
     30      39.2913      0.00000
     31      39.5567      0.00000
     32      40.5228      0.00000
     33      43.8342      0.00000
     34      44.0971      0.00000
     35      44.4511      0.00000
     36      45.1878      0.00000
     37      45.6876      0.00000
     38      46.0654      0.00000
     39      47.8819      0.00000
     40      49.3906      0.00000
     41      50.0376      0.00000
     42      50.0577      0.00000
     43      52.0225      0.00000
     44      52.1845      0.00000
     45      52.3412      0.00000
     46      53.5629      0.00000
     47      53.9369      0.00000
     48      54.8085      0.00000
     49      57.5625      0.00000
     50      58.4146      0.00000
     51      58.5914      0.00000
     52      59.8326      0.00000
     53      61.1794      0.00000
     54      62.0564      0.00000
     55      62.2716      0.00000
     56      63.6804      0.00000
     57      63.8117      0.00000
     58      63.8567      0.00000
     59      65.0734      0.00000
     60      65.1477      0.00000
     61      68.5128      0.00000
     62      68.6100      0.00000
     63      69.6892      0.00000
     64      70.1676      0.00000
     65      76.4989      0.00000
     66      76.4989      0.00000
     67      76.4989      0.00000
     68      76.4989      0.00000
     69      76.4989      0.00000
     70      76.4989      0.00000
     71      76.4989      0.00000
     72      76.4989      0.00000
     73      76.4989      0.00000
     74      76.4989      0.00000
     75      76.4989      0.00000
     76      76.4989      0.00000
     77      76.4989      0.00000
     78      76.4989      0.00000
     79      76.4989      0.00000
     80      76.4989      0.00000
     81      76.4989      0.00000
     82      76.4989      0.00000
     83      76.4989      0.00000
     84      76.4989      0.00000
     85      76.4989      0.00000
     86      76.4989      0.00000
     87      76.4989      0.00000
     88      76.4989      0.00000
     89      76.4989      0.00000
     90      76.4989      0.00000
     91      76.4989      0.00000
     92      76.4989      0.00000
     93      76.4989      0.00000
     94      76.4989      0.00000
     95      76.4989      0.00000
     96      76.4989      0.00000

 k-point    10 :       0.3333    0.3333    0.0000
  band No.  band energies     occupation 
      1      -4.9334      2.00000
      2       0.1009      2.00000
      3       2.6366      2.00000
      4       2.6366      2.00000
      5       6.4494     -0.00000
      6       7.7459     -0.00000
      7      13.2010      0.00000
      8      13.2010      0.00000
      9      15.8384      0.00000
     10      15.8179      0.00000
     11      18.6632      0.00000
     12      19.2705      0.00000
     13      19.2705      0.00000
     14      20.5796      0.00000
     15      21.9838      0.00000
     16      21.8782      0.00000
     17      21.6739      0.00000
     18      24.1587      0.00000
     19      27.8842      0.00000
     20      29.7181      0.00000
     21      30.5949      0.00000
     22      30.5949      0.00000
     23      31.8736      0.00000
     24      32.6650      0.00000
     25      32.9092      0.00000
     26      33.9582      0.00000
     27      33.9582      0.00000
     28      40.3333      0.00000
     29      40.4092      0.00000
     30      40.8965      0.00000
     31      40.8965      0.00000
     32      41.4870      0.00000
     33      43.2767      0.00000
     34      43.2767      0.00000
     35      45.1448      0.00000
     36      45.3683      0.00000
     37      45.3683      0.00000
     38      46.8563      0.00000
     39      48.0843      0.00000
     40      48.8696      0.00000
     41      48.9593      0.00000
     42      48.9593      0.00000
     43      50.6983      0.00000
     44      53.4849      0.00000
     45      53.5094      0.00000
     46      53.5094      0.00000
     47      56.3418      0.00000
     48      58.1224      0.00000
     49      58.6492      0.00000
     50      58.8912      0.00000
     51      58.9663      0.00000
     52      58.9663      0.00000
     53      63.4269      0.00000
     54      63.4269      0.00000
     55      63.5062      0.00000
     56      65.1264      0.00000
     57      65.2722      0.00000
     58      66.3511      0.00000
     59      66.3511      0.00000
     60      68.8607      0.00000
     61      68.8607      0.00000
     62      68.9802      0.00000
     63      69.3833      0.00000
     64      71.3583      0.00000
     65      76.4989      0.00000
     66      76.4989      0.00000
     67      76.4989      0.00000
     68      76.4989      0.00000
     69      76.4989      0.00000
     70      76.4989      0.00000
     71      76.4989      0.00000
     72      76.4989      0.00000
     73      76.4989      0.00000
     74      76.4989      0.00000
     75      76.4989      0.00000
     76      76.4989      0.00000
     77      76.4989      0.00000
     78      76.4989      0.00000
     79      76.4989      0.00000
     80      76.4989      0.00000
     81      76.4989      0.00000
     82      76.4989      0.00000
     83      76.4989      0.00000
     84      76.4989      0.00000
     85      76.4989      0.00000
     86      76.4989      0.00000
     87      76.4989      0.00000
     88      76.4989      0.00000
     89      76.4989      0.00000
     90      76.4989      0.00000
     91      76.4989      0.00000
     92      76.4989      0.00000
     93      76.4989      0.00000
     94      76.4989      0.00000
     95      76.4989      0.00000
     96      76.4989      0.00000

 k-point    11 :       0.5000    0.3333    0.0000
  band No.  band energies     occupation 
      1      -3.7620      2.00000
      2      -1.4421      2.00000
      3       1.3931      2.00000
      4       2.4900      2.00000
      5       6.7911     -0.00000
      6       8.4933     -0.00000
      7      13.3976      0.00000
      8      13.3657      0.00000
      9      16.4791      0.00000
     10      16.5679      0.00000
     11      18.2374      0.00000
     12      18.8252      0.00000
     13      20.2075      0.00000
     14      21.5381      0.00000
     15      21.7808      0.00000
     16      24.4213      0.00000
     17      23.9284      0.00000
     18      24.7059      0.00000
     19      25.6952      0.00000
     20      27.7988      0.00000
     21      28.4329      0.00000
     22      29.0358      0.00000
     23      29.3135      0.00000
     24      31.7918      0.00000
     25      34.2940      0.00000
     26      34.5661      0.00000
     27      36.8700      0.00000
     28      37.1746      0.00000
     29      37.5359      0.00000
     30      39.8204      0.00000
     31      40.6668      0.00000
     32      41.6951      0.00000
     33      42.3997      0.00000
     34      43.8984      0.00000
     35      44.3276      0.00000
     36      45.6591      0.00000
     37      46.6782      0.00000
     38      47.3617      0.00000
     39      48.5843      0.00000
     40      49.0257      0.00000
     41      49.9475      0.00000
     42      51.6676      0.00000
     43      52.5487      0.00000
     44      53.9532      0.00000
     45      54.5082      0.00000
     46      55.4985      0.00000
     47      55.8610      0.00000
     48      58.2684      0.00000
     49      59.1431      0.00000
     50      59.9513      0.00000
     51      60.6384      0.00000
     52      61.2195      0.00000
     53      61.7048      0.00000
     54      62.8998      0.00000
     55      63.2763      0.00000
     56      64.2097      0.00000
     57      64.6316      0.00000
     58      66.4335      0.00000
     59      67.5894      0.00000
     60      67.5989      0.00000
     61      68.8516      0.00000
     62      69.0645      0.00000
     63      70.3018      0.00000
     64      70.7431      0.00000
     65      76.4989      0.00000
     66      76.4989      0.00000
     67      76.4989      0.00000
     68      76.4989      0.00000
     69      76.4989      0.00000
     70      76.4989      0.00000
     71      76.4989      0.00000
     72      76.4989      0.00000
     73      76.4989      0.00000
     74      76.4989      0.00000
     75      76.4989      0.00000
     76      76.4989      0.00000
     77      76.4989      0.00000
     78      76.4989      0.00000
     79      76.4989      0.00000
     80      76.4989      0.00000
     81      76.4989      0.00000
     82      76.4989      0.00000
     83      76.4989      0.00000
     84      76.4989      0.00000
     85      76.4989      0.00000
     86      76.4989      0.00000
     87      76.4989      0.00000
     88      76.4989      0.00000
     89      76.4989      0.00000
     90      76.4989      0.00000
     91      76.4989      0.00000
     92      76.4989      0.00000
     93      76.4989      0.00000
     94      76.4989      0.00000
     95      76.4989      0.00000
     96      76.4989      0.00000

 k-point    12 :      -0.3333    0.3333    0.0000
  band No.  band energies     occupation 
      1      -3.5687      2.00000
      2      -1.6509      2.00000
      3       0.5963      2.00000
      4       2.9521      2.00000
      5       7.3357     -0.00000
      6      11.5744      0.00000
      7      12.4072      0.00000
      8      12.9887      0.00000
      9      13.3279      0.00000
     10      13.5053      0.00000
     11      19.9215      0.00000
     12      20.3894      0.00000
     13      21.6898      0.00000
     14      21.4475      0.00000
     15      22.4729      0.00000
     16      23.4675      0.00000
     17      23.3679      0.00000
     18      25.0827      0.00000
     19      27.2942      0.00000
[...]
     32      40.8039      0.00000
     33      43.5057      0.00000
     34      43.5057      0.00000
     35      44.8290      0.00000
     36      44.8290      0.00000
     37      45.6422      0.00000
     38      45.6422      0.00000
     39      47.1435      0.00000
     40      47.1435      0.00000
     41      50.0485      0.00000
     42      50.0485      0.00000
     43      53.7724      0.00000
     44      53.7724      0.00000
     45      55.3351      0.00000
     46      55.3351      0.00000
     47      58.5371      0.00000
     48      58.5371      0.00000
     49      61.2102      0.00000
     50      61.2102      0.00000
     51      62.3187      0.00000
     52      62.3187      0.00000
     53      62.4258      0.00000
     54      62.4258      0.00000
     55      62.6649      0.00000
     56      62.6649      0.00000
     57      65.3617      0.00000
     58      65.3617      0.00000
     59      66.6056      0.00000
     60      66.6056      0.00000
     61      66.9196      0.00000
     62      66.9196      0.00000
     63      68.7048      0.00000
     64      68.7048      0.00000
     65      76.4989      0.00000
     66      76.4989      0.00000
     67      76.4989      0.00000
     68      76.4989      0.00000
     69      76.4989      0.00000
     70      76.4989      0.00000
     71      76.4989      0.00000
     72      76.4989      0.00000
     73      76.4989      0.00000
     74      76.4989      0.00000
     75      76.4989      0.00000
     76      76.4989      0.00000
     77      76.4989      0.00000
     78      76.4989      0.00000
     79      76.4989      0.00000
     80      76.4989      0.00000
     81      76.4989      0.00000
     82      76.4989      0.00000
     83      76.4989      0.00000
     84      76.4989      0.00000
     85      76.4989      0.00000
     86      76.4989      0.00000
     87      76.4989      0.00000
     88      76.4989      0.00000
     89      76.4989      0.00000
     90      76.4989      0.00000
     91      76.4989      0.00000
     92      76.4989      0.00000
     93      76.4989      0.00000
     94      76.4989      0.00000
     95      76.4989      0.00000
     96      76.4989      0.00000

 k-point    14 :       0.5000    0.3333    0.1667
  band No.  band energies     occupation 
      1      -4.5472      2.00000
      2      -0.5355      2.00000
      3       1.4629      2.00000
      4       2.7777      2.00000
      5       8.6687     -0.00000
      6       9.4945      0.00000
      7      10.1616      0.00000
      8      12.9848      0.00000
      9      14.9136      0.00000
     10      15.7288      0.00000
     11      18.9780      0.00000
     12      18.8387      0.00000
     13      19.4535      0.00000
     14      20.6655      0.00000
     15      22.1748      0.00000
     16      23.5613      0.00000
     17      24.5976      0.00000
     18      25.9171      0.00000
     19      26.2429      0.00000
     20      27.8424      0.00000
     21      29.1186      0.00000
     22      29.7569      0.00000
     23      31.9605      0.00000
     24      32.6245      0.00000
     25      33.4600      0.00000
     26      35.2882      0.00000
     27      36.5426      0.00000
     28      36.7570      0.00000
     29      37.5430      0.00000
     30      37.9036      0.00000
     31      39.3225      0.00000
     32      41.8712      0.00000
     33      43.0968      0.00000
     34      44.1219      0.00000
     35      44.6390      0.00000
     36      45.3445      0.00000
     37      47.4863      0.00000
     38      47.4978      0.00000
     39      48.3091      0.00000
     40      49.2168      0.00000
     41      50.7190      0.00000
     42      51.2227      0.00000
     43      52.0592      0.00000
     44      53.5327      0.00000
     45      53.7986      0.00000
     46      55.4769      0.00000
     47      56.2578      0.00000
     48      56.5649      0.00000
     49      58.2616      0.00000
     50      59.9684      0.00000
     51      60.4733      0.00000
     52      61.0256      0.00000
     53      62.5631      0.00000
     54      62.7619      0.00000
     55      63.2611      0.00000
     56      63.7307      0.00000
     57      64.6683      0.00000
     58      64.9157      0.00000
     59      67.2341      0.00000
     60      67.4102      0.00000
     61      68.8682      0.00000
     62      69.3974      0.00000
     63      70.4694      0.00000
     64      70.6573      0.00000
     65      76.4989      0.00000
     66      76.4989      0.00000
     67      76.4989      0.00000
     68      76.4989      0.00000
     69      76.4989      0.00000
     70      76.4989      0.00000
     71      76.4989      0.00000
     72      76.4989      0.00000
     73      76.4989      0.00000
     74      76.4989      0.00000
     75      76.4989      0.00000
     76      76.4989      0.00000
     77      76.4989      0.00000
     78      76.4989      0.00000
     79      76.4989      0.00000
     80      76.4989      0.00000
     81      76.4989      0.00000
     82      76.4989      0.00000
     83      76.4989      0.00000
     84      76.4989      0.00000
     85      76.4989      0.00000
     86      76.4989      0.00000
     87      76.4989      0.00000
     88      76.4989      0.00000
     89      76.4989      0.00000
     90      76.4989      0.00000
     91      76.4989      0.00000
     92      76.4989      0.00000
     93      76.4989      0.00000
     94      76.4989      0.00000
     95      76.4989      0.00000
     96      76.4989      0.00000

 k-point    15 :      -0.3333    0.3333    0.1667
  band No.  band energies     occupation 
      1      -3.5579      2.00000
      2      -1.7267      2.00000
      3       1.0125      2.00000
      4       2.2892      2.00000
      5       9.1266     -0.00000
      6       9.4436      0.00000
      7      11.9223      0.00000
      8      12.4069      0.00000
      9      13.4733      0.00000
     10      16.9765      0.00000
     11      17.8278      0.00000
     12      19.0130      0.00000
     13      22.0867      0.00000
     14      22.6731      0.00000
     15      22.7931      0.00000
     16      23.5599      0.00000
     17      23.7965      0.00000
     18      25.4994      0.00000
     19      25.8680      0.00000
     20      26.8444      0.00000
     21      28.2657      0.00000
     22      30.7194      0.00000
     23      31.0225      0.00000
     24      31.1846      0.00000
     25      33.6220      0.00000
     26      34.8554      0.00000
     27      35.3798      0.00000
     28      36.1112      0.00000
     29      36.4092      0.00000
     30      37.7240      0.00000
     31      39.1243      0.00000
     32      41.4446      0.00000
     33      42.7406      0.00000
     34      44.8929      0.00000
     35      45.1559      0.00000
     36      46.1696      0.00000
     37      47.5574      0.00000
     38      47.9337      0.00000
     39      49.2403      0.00000
     40      49.8311      0.00000
     41      50.2781      0.00000
     42      51.4412      0.00000
     43      53.2777      0.00000
     44      54.1144      0.00000
     45      55.5298      0.00000
     46      56.3330      0.00000
     47      56.8105      0.00000
     48      57.6892      0.00000
     49      58.8765      0.00000
     50      60.1288      0.00000
     51      60.3869      0.00000
     52      60.9133      0.00000
     53      61.1588      0.00000
     54      61.9628      0.00000
     55      62.5333      0.00000
     56      63.3600      0.00000
     57      64.8084      0.00000
     58      65.4474      0.00000
     59      67.2544      0.00000
     60      67.4685      0.00000
     61      68.1660      0.00000
     62      69.1796      0.00000
     63      69.2938      0.00000
     64      70.7969      0.00000
     65      76.4989      0.00000
     66      76.4989      0.00000
     67      76.4989      0.00000
     68      76.4989      0.00000
     69      76.4989      0.00000
     70      76.4989      0.00000
     71      76.4989      0.00000
     72      76.4989      0.00000
     73      76.4989      0.00000
     74      76.4989      0.00000
     75      76.4989      0.00000
     76      76.4989      0.00000
     77      76.4989      0.00000
     78      76.4989      0.00000
     79      76.4989      0.00000
     80      76.4989      0.00000
     81      76.4989      0.00000
     82      76.4989      0.00000
     83      76.4989      0.00000
     84      76.4989      0.00000
     85      76.4989      0.00000
     86      76.4989      0.00000
     87      76.4989      0.00000
     88      76.4989      0.00000
     89      76.4989      0.00000
     90      76.4989      0.00000
     91      76.4989      0.00000
     92      76.4989      0.00000
     93      76.4989      0.00000
     94      76.4989      0.00000
     95      76.4989      0.00000
     96      76.4989      0.00000

 k-point    16 :      -0.3333    0.5000    0.1667
  band No.  band energies     occupation 
      1      -2.5636      2.00000
      2      -2.5636      2.00000
      3       1.3767      2.00000
      4       1.3767      2.00000
      5       8.5291     -0.00000
      6       8.5291     -0.00000
      7      12.6461      0.00000
      8      12.6461      0.00000
      9      16.4780      0.00000
     10      16.4780      0.00000
     11      18.8471      0.00000
     12      18.8471      0.00000
     13      22.2173      0.00000
     14      22.2173      0.00000
     15      22.8579      0.00000
     16      22.8579      0.00000
     17      24.1378      0.00000
     18      24.1378      0.00000
     19      26.3583      0.00000
     20      26.3583      0.00000
     21      28.4184      0.00000
     22      28.4184      0.00000
     23      30.1161      0.00000
     24      30.1161      0.00000
     25      35.1083      0.00000
     26      35.1083      0.00000
     27      36.1112      0.00000
     28      36.1112      0.00000
     29      37.2576      0.00000
     30      37.2576      0.00000
     31      42.1256      0.00000
     32      42.1256      0.00000
     33      42.7471      0.00000
     34      42.7471      0.00000
     35      45.6291      0.00000
     36      45.6291      0.00000
     37      47.4488      0.00000
     38      47.4488      0.00000
     39      48.2999      0.00000
     40      48.2999      0.00000
     41      52.1815      0.00000
     42      52.1815      0.00000
     43      53.8364      0.00000
     44      53.8364      0.00000
     45      55.7923      0.00000
     46      55.7923      0.00000
     47      56.0809      0.00000
     48      56.0809      0.00000
     49      59.6656      0.00000
     50      59.6656      0.00000
     51      60.8383      0.00000
     52      60.8383      0.00000
     53      62.5434      0.00000
     54      62.5434      0.00000
     55      63.7910      0.00000
     56      63.7910      0.00000
     57      64.8038      0.00000
     58      64.8038      0.00000
     59      67.6099      0.00000
     60      67.6099      0.00000
     61      69.1071      0.00000
     62      69.1071      0.00000
     63      70.4148      0.00000
     64      70.4148      0.00000
     65      76.4989      0.00000
     66      76.4989      0.00000
     67      76.4989      0.00000
     68      76.4989      0.00000
     69      76.4989      0.00000
     70      76.4989      0.00000
     71      76.4989      0.00000
     72      76.4989      0.00000
     73      76.4989      0.00000
     74      76.4989      0.00000
     75      76.4989      0.00000
     76      76.4989      0.00000
     77      76.4989      0.00000
     78      76.4989      0.00000
     79      76.4989      0.00000
     80      76.4989      0.00000
     81      76.4989      0.00000
     82      76.4989      0.00000
     83      76.4989      0.00000
     84      76.4989      0.00000
     85      76.4989      0.00000
     86      76.4989      0.00000
     87      76.4989      0.00000
     88      76.4989      0.00000
     89      76.4989      0.00000
     90      76.4989      0.00000
     91      76.4989      0.00000
     92      76.4989      0.00000
     93      76.4989      0.00000
     94      76.4989      0.00000
     95      76.4989      0.00000
     96      76.4989      0.00000


--------------------------------------------------------------------------------------------------------


 soft charge-density along one line, spin component           1
         0         1         2         3         4         5         6         7         8         9
 total charge-density along one line
 
 pseudopotential strength for first ion, spin component:           1
 17.022 -18.258  -0.000  -0.000  -0.000   0.000   0.000   0.000
-18.258  50.933   0.000   0.000   0.000  -0.000  -0.000  -0.000
 -0.000   0.000   3.850   0.000   0.000 -11.250  -0.000  -0.000
 -0.000   0.000   0.000   3.850   0.000  -0.000 -11.250  -0.000
 -0.000   0.000   0.000   0.000   3.850  -0.000  -0.000 -11.250
  0.000  -0.000 -11.250  -0.000  -0.000  35.827   0.000   0.000
  0.000  -0.000  -0.000 -11.250  -0.000   0.000  35.827   0.000
  0.000  -0.000  -0.000  -0.000 -11.250   0.000   0.000  35.827
  0.000   0.000  -0.000   0.002  -0.000   0.000  -0.004   0.000
  0.000   0.000  -0.000  -0.000   0.002   0.000   0.000  -0.004
 -0.000  -0.000  -0.000   0.000  -0.000   0.000  -0.000   0.000
  0.000   0.000   0.002  -0.000  -0.000  -0.004   0.000   0.000
 -0.000  -0.000  -0.000  -0.000   0.000   0.000   0.000  -0.000
 -0.000   0.000   0.000  -0.006   0.000  -0.000   0.016  -0.000
 -0.000   0.000   0.000   0.000  -0.006  -0.000  -0.000   0.016
  0.000  -0.000   0.000  -0.000   0.000  -0.000   0.000  -0.000
 -0.000   0.000  -0.006   0.000   0.000   0.016  -0.000  -0.000
  0.000  -0.000   0.000   0.000  -0.000  -0.000  -0.000   0.000
 total augmentation occupancy for first ion, spin component:           1
  1.591   0.016  -0.000  -0.000  -0.000  -0.000  -0.000  -0.000   0.000   0.000  -0.000  -0.000   0.000   0.000  -0.000   0.000
  0.016   0.000   0.000  -0.000   0.000   0.000   0.000   0.000   0.000   0.000  -0.000  -0.000   0.000   0.000  -0.000   0.000
 -0.000   0.000   1.210   0.000  -0.000   0.025  -0.000  -0.000   0.000  -0.000   0.000   0.145   0.000   0.000  -0.000   0.000
 -0.000  -0.000   0.000   1.210   0.000  -0.000   0.025   0.000   0.145   0.000   0.000  -0.000  -0.000  -0.000   0.000  -0.000
 -0.000   0.000  -0.000   0.000   1.210  -0.000   0.000   0.025   0.000   0.145  -0.000  -0.000  -0.000   0.000  -0.000   0.000
 -0.000   0.000   0.025  -0.000  -0.000   0.001   0.000  -0.000   0.000  -0.000   0.000   0.003   0.000   0.000  -0.000   0.000
 -0.000   0.000  -0.000   0.025   0.000   0.000   0.001   0.000   0.003   0.000   0.000  -0.000  -0.000   0.000   0.000   0.000
 -0.000   0.000  -0.000   0.000   0.025  -0.000   0.000   0.001   0.000   0.003  -0.000  -0.000  -0.000   0.000   0.000  -0.000
  0.000   0.000   0.000   0.145   0.000   0.000   0.003   0.000   0.028   0.000   0.000  -0.000   0.000   0.000   0.000  -0.000
  0.000   0.000  -0.000   0.000   0.145  -0.000   0.000   0.003   0.000   0.028  -0.000  -0.000  -0.000   0.000   0.000   0.000
 -0.000  -0.000   0.000   0.000  -0.000   0.000   0.000  -0.000   0.000  -0.000   0.007   0.000   0.000  -0.000   0.000  -0.000
 -0.000  -0.000   0.145  -0.000  -0.000   0.003  -0.000  -0.000  -0.000  -0.000   0.000   0.028   0.000  -0.000  -0.000   0.000
  0.000   0.000   0.000  -0.000  -0.000   0.000  -0.000  -0.000   0.000  -0.000  -0.000   0.000   0.007   0.000  -0.000  -0.000
  0.000   0.000   0.000  -0.000   0.000   0.000   0.000   0.000   0.000   0.000  -0.000  -0.000   0.000   0.000   0.000   0.000
 -0.000  -0.000  -0.000   0.000  -0.000  -0.000   0.000   0.000   0.000   0.000   0.000  -0.000  -0.000   0.000   0.000  -0.000
  0.000   0.000   0.000  -0.000   0.000   0.000   0.000  -0.000  -0.000   0.000  -0.000   0.000   0.000   0.000  -0.000   0.000
 -0.000  -0.000  -0.000  -0.000  -0.000   0.000  -0.000  -0.000  -0.000  -0.000   0.000   0.000   0.000  -0.000  -0.000   0.000
  0.000   0.000   0.000   0.000  -0.000   0.000   0.000  -0.000   0.000  -0.000  -0.000   0.000  -0.000  -0.000  -0.000   0.000


------------------------ aborting loop because EDIFF is reached ----------------------------------------


 MLWF driver (Wannier functions)
 ===============================
 Calling wannier_setup of wannier90 in library mode
 Wannier90 mode
 Computing MMN (overlap matrix elements)
 Writing MMN to wannier90.mmn
 Writing EIG to wannier90.eig
 
 LOCPROJ orbitals
 -------------------------------------------------------------------------------
 ---------------
  n  l  m   za        pos                       proj_x                    proj_z
 -------------------------------------------------------------------------------
 ---------------
  1 -3  1   1.890     0.000   0.000   0.000     1.000   0.000   0.000     0.000   0.000   1.000
  1 -3  2   1.890     0.000   0.000   0.000     1.000   0.000   0.000     0.000   0.000   1.000
  1 -3  3   1.890     0.000   0.000   0.000     1.000   0.000   0.000     0.000   0.000   1.000
  1 -3  4   1.890     0.000   0.000   0.000     1.000   0.000   0.000     0.000   0.000   1.000
  1 -3  1   1.890     0.250   0.250   0.250     1.000   0.000   0.000     0.000   0.000   1.000
  1 -3  2   1.890     0.250   0.250   0.250     1.000   0.000   0.000     0.000   0.000   1.000
  1 -3  3   1.890     0.250   0.250   0.250     1.000   0.000   0.000     0.000   0.000   1.000
  1 -3  4   1.890     0.250   0.250   0.250     1.000   0.000   0.000     0.000   0.000   1.000
 
 Computing AMN (projections onto localized orbitals)
 Writing AMN to wannier90.amn

 MMN -> overlap matrix elements
 AMM -> projections of Bloch states onto localized states
 UMN -> unitary matrix transforming from Bloch states to Wannier states

 Parameters of MLWF datastructure
 num_band =           96
 num_wann =            8

 Computiation of AMN
 proj = Wannier90

 Transformation from AMN to UMN
 trafo = One-shot SVD method

------------------------ end of MLWF driver reached ----------------------------------------------------


--------------------------------------------------------------------------------------------------------



  FREE ENERGIE OF THE ION-ELECTRON SYSTEM (eV)
  ---------------------------------------------------
  free  energy   TOTEN  =       -14.98279302 eV

  energy  without entropy=      -14.98295717  energy(sigma->0) =      -14.98284774
 


--------------------------------------------------------------------------------------------------------




--------------------------------------------------------------------------------------------------------


     LOOP+:  cpu time     10.8098: real time     12.4725
    4ORBIT:  cpu time      0.0000: real time      0.0000

 total amount of memory used by VASP MPI-rank0    32551. kBytes
=======================================================================

   base                                    :      30000. kBytes
   nonl-proj                               :       1794. kBytes
   fftplans                                :        100. kBytes
   grid                                    :        405. kBytes
   one-center                              :         31. kBytes
   wavefun                                 :        221. kBytes
 
  
  
 General timing and accounting informations for this job:
 ========================================================
  
                  Total CPU time used (sec):       11.972
                            User time (sec):        8.055
                          System time (sec):        3.917
                         Elapsed time (sec):       14.108
  
                   Maximum memory used (kb):      250412.
                   Average memory used (kb):          N/A
  
                          Minor page faults:        30147
                          Major page faults:            2
                 Voluntary context switches:         3528
