 
             +---------------------------------------------------+
             |                                                   |
             |                   WANNIER90                       |
             |                                                   |
             +---------------------------------------------------+
             |                                                   |
             |        Welcome to the Maximally-Localized         |
             |        Generalized Wannier Functions code         |
             |            http://www.wannier.org                 |
             |                                                   |
             |                                                   |
             |  Wannier90 Developer Group:                       |
             |    Giovanni Pizzi    (EPFL)                       |
             |    Valerio Vitale    (Cambridge)                  |
             |    David Vanderbilt  (Rutgers University)         |
             |    Nicola Marzari    (EPFL)                       |
             |    Ivo Souza         (Universidad del Pais Vasco) |
             |    Arash A. Mostofi  (Imperial College London)    |
             |    Jonathan R. Yates (University of Oxford)       |
             |                                                   |
             |  For the full list of Wannier90 3.x authors,      |
             |  please check the code documentation and the      |
             |  README on the GitHub page of the code            |
             |                                                   |
             |                                                   |
             |  Please cite                                      |
             |                                                   |
             |  [ref] "Wannier90 as a community code:            |
             |        new features and applications",            |
             |        G. Pizzi et al., J. Phys. Cond. Matt. 32,  |
             |        165902 (2020).                             |
             |        http://doi.org/10.1088/1361-648X/ab51ff    |
             |                                                   |
             |  in any publications arising from the use of      |
             |  this code. For the method please cite            |
             |                                                   |
             |  [ref] "Maximally Localized Generalised Wannier   |
             |         Functions for Composite Energy Bands"     |
             |         N. Marzari and D. Vanderbilt              |
             |         Phys. Rev. B 56 12847 (1997)              |
             |                                                   |
             |  [ref] "Maximally Localized Wannier Functions     |
             |         for Entangled Energy Bands"               |
             |         I. Souza, N. Marzari and D. Vanderbilt    |
             |         Phys. Rev. B 65 035109 (2001)             |
             |                                                   |
             |                                                   |
             | Copyright (c) 1996-2020                           |
             |        The Wannier90 Developer Group and          |
             |        individual contributors                    |
             |                                                   |
             |      Release: 3.1.0        5th March    2020      |
             |                                                   |
             | This program is free software; you can            |
             | redistribute it and/or modify it under the terms  |
             | of the GNU General Public License as published by |
             | the Free Software Foundation; either version 2 of |
             | the License, or (at your option) any later version|
             |                                                   |
             | This program is distributed in the hope that it   |
             | will be useful, but WITHOUT ANY WARRANTY; without |
             | even the implied warranty of MERCHANTABILITY or   |
             | FITNESS FOR A PARTICULAR PURPOSE. See the GNU     |
             | General Public License for more details.          |
             |                                                   |
             | You should have received a copy of the GNU General|
             | Public License along with this program; if not,   |
             | write to the Free Software Foundation, Inc.,      |
             | 675 Mass Ave, Cambridge, MA 02139, USA.           |
             |                                                   |
             +---------------------------------------------------+
             |    Execution started on  1Jun2025 at 15:20:13     |
             +---------------------------------------------------+
 
 ******************************************************************************
 * -> Using CODATA 2006 constant values                                       *
 *    (http://physics.nist.gov/cuu/Constants/index.html)                      *
 * -> Using Bohr value from CODATA                                            *
 ******************************************************************************
 

 Running in parallel on  96 CPUs

 
                                    ------
                                    SYSTEM
                                    ------
 
                              Lattice Vectors (Ang)
                    a_1     2.715000   2.715000   0.000000
                    a_2     0.000000   2.715000   2.715000
                    a_3     2.715000   0.000000   2.715000
 
                   Unit Cell Volume:      40.02575  (Ang^3)
 
                        Reciprocal-Space Vectors (Ang^-1)
                    b_1     1.157124   1.157124  -1.157124
                    b_2    -1.157124   1.157124   1.157124
                    b_3     1.157124  -1.157124   1.157124
  
 *----------------------------------------------------------------------------*
 |   Site       Fractional Coordinate          Cartesian Coordinate (Ang)     |
 +----------------------------------------------------------------------------+
 | Si   1   0.00000   0.00000   0.00000   |    0.00000   0.00000   0.00000    |
 | Si   2   0.25000   0.25000   0.25000   |    1.35750   1.35750   1.35750    |
 *----------------------------------------------------------------------------*
                                ------------
                                K-POINT GRID
                                ------------
  
             Grid size =  6 x  6 x  6      Total points =  216
  
  
 *---------------------------------- MAIN ------------------------------------*
 |  Number of Wannier Functions               :                 8             |
 |  Number of Objective Wannier Functions     :                 8             |
 |  Number of input Bloch states              :                48             |
 |  Output verbosity (1=low, 5=high)          :                 1             |
 |  Timing Level (1=low, 5=high)              :                 1             |
 |  Optimisation (0=memory, 3=speed)          :                 3             |
 |  Length Unit                               :               Ang             |
 |  Post-processing setup (write *.nnkp)      :                 F             |
 |  Using Gamma-only branch of algorithms     :                 F             |
 *----------------------------------------------------------------------------*
 *------------------------------- WANNIERISE ---------------------------------*
 |  Total number of iterations                :               100             |
 |  Number of CG steps before reset           :                 5             |
 |  Trial step length for line search         :             2.000             |
 |  Convergence tolerence                     :         0.100E-09             |
 |  Convergence window                        :                -1             |
 |  Iterations between writing output         :                 1             |
 |  Iterations between backing up to disk     :               100             |
 |  Write r^2_nm to file                      :                 F             |
 |  Write xyz WF centres to file              :                 F             |
 |  Write on-site energies <0n|H|0n> to file  :                 F             |
 |  Use guiding centre to control phases      :                 T             |
 |  Use phases for initial projections        :                 F             |
 |  Iterations before starting guiding centres:                 0             |
 |  Iterations between using guiding centres  :                 1             |
 *----------------------------------------------------------------------------*
 *------------------------------- DISENTANGLE --------------------------------*
 |  Using band disentanglement                :                 T             |
 |  Total number of iterations                :               100             |
 |  Mixing ratio                              :             0.500             |
 |  Convergence tolerence                     :         1.000E-10             |
 |  Convergence window                        :                 3             |
 *----------------------------------------------------------------------------*
 Time to read parameters        0.055 (sec)

 *---------------------------------- K-MESH ----------------------------------*
 +----------------------------------------------------------------------------+
 |                    Distance to Nearest-Neighbour Shells                    |
 |                    ------------------------------------                    |
 |          Shell             Distance (Ang^-1)          Multiplicity         |
 |          -----             -----------------          ------------         |
 |             1                   0.334033                      8            |
 |             2                   0.385708                      6            |
 |             3                   0.545474                     12            |
 |             4                   0.639625                     24            |
 |             5                   0.668066                      8            |
 |             6                   0.771416                      6            |
 |             7                   0.840631                     24            |
 |             8                   0.862470                     24            |
 |             9                   0.944788                     24            |
 |            10                   1.002099                     32            |
 |            11                   1.090947                     12            |
 |            12                   1.140940                     48            |
 |            13                   1.157124                     30            |
 |            14                   1.219716                     24            |
 |            15                   1.264629                     24            |
 |            16                   1.279249                     24            |
 |            17                   1.336132                      8            |
 |            18                   1.377253                     48            |
 |            19                   1.390690                     24            |
 |            20                   1.443188                     48            |
 |            21                   1.481340                     72            |
 |            22                   1.542832                      6            |
 |            23                   1.578579                     24            |
 |            24                   1.590315                     48            |
 |            25                   1.636421                     36            |
 |            26                   1.670165                     56            |
 |            27                   1.681263                     24            |
 |            28                   1.724939                     24            |
 |            29                   1.756984                     72            |
 |            30                   1.767537                     48            |
 |            31                   1.809131                     24            |
 |            32                   1.839710                     48            |
 |            33                   1.889576                     24            |
 |            34                   1.918874                     72            |
 |            35                   1.928541                     30            |
 |            36                   1.966733                     72            |
 +----------------------------------------------------------------------------+
 | The b-vectors are chosen automatically                                     |
 | The following shells are used:   1                                         |
 +----------------------------------------------------------------------------+
 |                        Shell   # Nearest-Neighbours                        |
 |                        -----   --------------------                        |
 |                          1               8                                 |
 +----------------------------------------------------------------------------+
 | Completeness relation is fully satisfied [Eq. (B1), PRB 56, 12847 (1997)]  |
 +----------------------------------------------------------------------------+
 |                  b_k Vectors (Ang^-1) and Weights (Ang^2)                  |
 |                  ----------------------------------------                  |
 |            No.         b_k(x)      b_k(y)      b_k(z)        w_b           |
 |            ---        --------------------------------     --------        |
 |             1         0.192854    0.192854   -0.192854     3.360876        |
 |             2        -0.192854    0.192854    0.192854     3.360876        |
 |             3         0.192854   -0.192854    0.192854     3.360876        |
 |             4        -0.192854   -0.192854   -0.192854     3.360876        |
 |             5        -0.192854   -0.192854    0.192854     3.360876        |
 |             6         0.192854   -0.192854   -0.192854     3.360876        |
 |             7        -0.192854    0.192854   -0.192854     3.360876        |
 |             8         0.192854    0.192854    0.192854     3.360876        |
 +----------------------------------------------------------------------------+
 |                           b_k Directions (Ang^-1)                          |
 |                           -----------------------                          |
 |            No.           x           y           z                         |
 |            ---        --------------------------------                     |
 |             1         0.192854    0.192854   -0.192854                     |
 |             2        -0.192854    0.192854    0.192854                     |
 |             3         0.192854   -0.192854    0.192854                     |
 |             4        -0.192854   -0.192854   -0.192854                     |
 +----------------------------------------------------------------------------+
  
 Time to get kmesh              0.181 (sec)
 *============================================================================*
 |                              MEMORY ESTIMATE                               |
 |         Maximum RAM allocated during each phase of the calculation         |
 *============================================================================*
 |                        Disentanglement           79.09 Mb                  |
 |                            Wannierise:            6.19 Mb                  |
 |                          plot_wannier:            6.19 Mb                  |
 *----------------------------------------------------------------------------*
  
 Starting a new Wannier90 calculation ...


 Reading overlaps from wannier90.mmn    : File generated by VASP: cd Si GW0

 Reading projections from wannier90.amn : File generated by VASP: cd Si GW0

 Time to read overlaps          3.293 (sec)

 *------------------------------- DISENTANGLE --------------------------------*
 +----------------------------------------------------------------------------+
 |                              Energy  Windows                               |
 |                              ---------------                               |
 |                   Outer:   -7.00000  to   17.00000  (eV)                   |
 |                   No frozen states were specified                          |
 +----------------------------------------------------------------------------+
   Number of target bands to extract:    8

                   Unitarised projection of Wannier functions                  
                   ------------------------------------------                  
   A_mn = <psi_m|g_n> --> S = A.A^+ --> U = S^-1/2.A
   In dis_project... done
   No inner window (linner = F)

                   Extraction of optimally-connected subspace                  
                   ------------------------------------------                  
 +---------------------------------------------------------------------+<-- DIS
 |  Iter     Omega_I(i-1)      Omega_I(i)      Delta (frac.)    Time   |<-- DIS
 +---------------------------------------------------------------------+<-- DIS
       1      16.29749300      14.96164113       8.929E-02      0.00    <-- DIS
       2      15.58055695      14.60890098       6.651E-02      0.00    <-- DIS
       3      15.06291337      14.37595403       4.779E-02      0.00    <-- DIS
       4      14.69748543      14.21413658       3.400E-02      0.01    <-- DIS
       5      14.44020303      14.09843958       2.424E-02      0.01    <-- DIS
       6      14.25794626      14.01371833       1.743E-02      0.01    <-- DIS
       7      14.12736386      13.95037798       1.269E-02      0.01    <-- DIS
       8      14.03244812      13.90215768       9.372E-03      0.01    <-- DIS
       9      13.96235229      13.86486811       7.031E-03      0.02    <-- DIS
      10      13.90974096      13.83564114       5.356E-03      0.02    <-- DIS
      11      13.86963097      13.81247071       4.138E-03      0.02    <-- DIS
      12      13.83860650      13.79392508       3.239E-03      0.02    <-- DIS
      13      13.81429703      13.77896265       2.564E-03      0.02    <-- DIS
      14      13.79503324      13.76681185       2.050E-03      0.02    <-- DIS
      15      13.77962048      13.75689144       1.652E-03      0.02    <-- DIS
      16      13.76718925      13.74875679       1.341E-03      0.03    <-- DIS
      17      13.75709591      13.74206304       1.094E-03      0.03    <-- DIS
      18      13.74885612      13.73653944       8.966E-04      0.03    <-- DIS
      19      13.74209981      13.73197113       7.376E-04      0.03    <-- DIS
      20      13.73654021      13.72818607       6.085E-04      0.03    <-- DIS
      21      13.73195233      13.72504545       5.032E-04      0.03    <-- DIS
      22      13.72815771      13.72243655       4.169E-04      0.03    <-- DIS
      23      13.72501351      13.72026737       3.459E-04      0.04    <-- DIS
      24      13.72240448      13.71846248       2.874E-04      0.04    <-- DIS
      25      13.72023706      13.71695983       2.389E-04      0.04    <-- DIS
      26      13.71843486      13.71570823       1.988E-04      0.04    <-- DIS
      27      13.71693525      13.71466535       1.655E-04      0.04    <-- DIS
      28      13.71568671      13.71379614       1.379E-04      0.04    <-- DIS
      29      13.71464673      13.71307150       1.149E-04      0.04    <-- DIS
      30      13.71378016      13.71246727       9.574E-05      0.04    <-- DIS
      31      13.71305787      13.71196338       7.982E-05      0.05    <-- DIS
      32      13.71245571      13.71154311       6.656E-05      0.05    <-- DIS
      33      13.71195360      13.71119254       5.551E-05      0.05    <-- DIS
      34      13.71153486      13.71090011       4.630E-05      0.05    <-- DIS
      35      13.71118561      13.71065615       3.862E-05      0.05    <-- DIS
      36      13.71089429      13.71045261       3.221E-05      0.05    <-- DIS
      37      13.71065126      13.71028280       2.687E-05      0.05    <-- DIS
      38      13.71044852      13.71014112       2.242E-05      0.05    <-- DIS
      39      13.71027938      13.71002291       1.871E-05      0.06    <-- DIS
      40      13.71013826      13.70992428       1.561E-05      0.06    <-- DIS
      41      13.71002051      13.70984198       1.302E-05      0.06    <-- DIS
      42      13.70992227      13.70977331       1.087E-05      0.06    <-- DIS
      43      13.70984031      13.70971601       9.066E-06      0.06    <-- DIS
      44      13.70977191      13.70966820       7.565E-06      0.06    <-- DIS
      45      13.70971484      13.70962831       6.312E-06      0.06    <-- DIS
      46      13.70966723      13.70959502       5.267E-06      0.06    <-- DIS
      47      13.70962749      13.70956724       4.395E-06      0.07    <-- DIS
      48      13.70959434      13.70954406       3.667E-06      0.07    <-- DIS
      49      13.70956667      13.70952472       3.060E-06      0.07    <-- DIS
      50      13.70954359      13.70950858       2.553E-06      0.07    <-- DIS
      51      13.70952433      13.70949512       2.131E-06      0.07    <-- DIS
      52      13.70950825      13.70948388       1.778E-06      0.07    <-- DIS
      53      13.70949484      13.70947450       1.484E-06      0.07    <-- DIS
      54      13.70948365      13.70946668       1.238E-06      0.07    <-- DIS
      55      13.70947431      13.70946015       1.033E-06      0.08    <-- DIS
      56      13.70946652      13.70945470       8.619E-07      0.08    <-- DIS
      57      13.70946002      13.70945016       7.192E-07      0.08    <-- DIS
      58      13.70945459      13.70944636       6.002E-07      0.08    <-- DIS
      59      13.70945006      13.70944320       5.008E-07      0.08    <-- DIS
      60      13.70944629      13.70944056       4.179E-07      0.08    <-- DIS
      61      13.70944313      13.70943835       3.487E-07      0.08    <-- DIS
      62      13.70944050      13.70943651       2.910E-07      0.08    <-- DIS
      63      13.70943831      13.70943498       2.428E-07      0.09    <-- DIS
      64      13.70943648      13.70943370       2.026E-07      0.09    <-- DIS
      65      13.70943495      13.70943263       1.691E-07      0.09    <-- DIS
      66      13.70943367      13.70943174       1.411E-07      0.09    <-- DIS
      67      13.70943261      13.70943099       1.177E-07      0.09    <-- DIS
      68      13.70943172      13.70943037       9.822E-08      0.09    <-- DIS
      69      13.70943098      13.70942986       8.196E-08      0.09    <-- DIS
      70      13.70943036      13.70942942       6.839E-08      0.09    <-- DIS
      71      13.70942985      13.70942906       5.707E-08      0.10    <-- DIS
      72      13.70942941      13.70942876       4.762E-08      0.10    <-- DIS
      73      13.70942906      13.70942851       3.974E-08      0.10    <-- DIS
      74      13.70942876      13.70942830       3.316E-08      0.10    <-- DIS
      75      13.70942851      13.70942813       2.767E-08      0.10    <-- DIS
      76      13.70942830      13.70942798       2.309E-08      0.10    <-- DIS
      77      13.70942812      13.70942786       1.927E-08      0.10    <-- DIS
      78      13.70942798      13.70942776       1.608E-08      0.10    <-- DIS
      79      13.70942786      13.70942767       1.341E-08      0.11    <-- DIS
      80      13.70942775      13.70942760       1.119E-08      0.11    <-- DIS
      81      13.70942767      13.70942754       9.340E-09      0.11    <-- DIS
      82      13.70942760      13.70942749       7.794E-09      0.11    <-- DIS
      83      13.70942754      13.70942745       6.504E-09      0.11    <-- DIS
      84      13.70942749      13.70942742       5.427E-09      0.11    <-- DIS
      85      13.70942745      13.70942739       4.528E-09      0.11    <-- DIS
      86      13.70942742      13.70942737       3.779E-09      0.11    <-- DIS
      87      13.70942739      13.70942735       3.153E-09      0.12    <-- DIS
      88      13.70942736      13.70942733       2.631E-09      0.12    <-- DIS
      89      13.70942734      13.70942731       2.195E-09      0.12    <-- DIS
      90      13.70942733      13.70942730       1.832E-09      0.12    <-- DIS
      91      13.70942731      13.70942729       1.529E-09      0.12    <-- DIS
      92      13.70942730      13.70942729       1.276E-09      0.12    <-- DIS
      93      13.70942729      13.70942728       1.064E-09      0.12    <-- DIS
      94      13.70942729      13.70942727       8.882E-10      0.12    <-- DIS
      95      13.70942728      13.70942727       7.411E-10      0.13    <-- DIS
      96      13.70942727      13.70942726       6.184E-10      0.13    <-- DIS
      97      13.70942727      13.70942726       5.161E-10      0.13    <-- DIS
      98      13.70942726      13.70942726       4.306E-10      0.13    <-- DIS
      99      13.70942726      13.70942726       3.593E-10      0.13    <-- DIS
     100      13.70942726      13.70942725       2.998E-10      0.13    <-- DIS

     <<< Warning: Maximum number of disentanglement iterations reached >>>
          <<< Disentanglement convergence criteria not satisfied >>>

        Final Omega_I    13.70942725 (Ang^2)

 +----------------------------------------------------------------------------+

 Time to disentangle bands      0.170 (sec)

 Writing checkpoint file wannier90.chk... done

 
 *------------------------------- WANNIERISE ---------------------------------*
 +--------------------------------------------------------------------+<-- CONV
 | Iter  Delta Spread     RMS Gradient      Spread (Ang^2)      Time  |<-- CONV
 +--------------------------------------------------------------------+<-- CONV
 
 ------------------------------------------------------------------------------
 Initial State
  WF centre and spread    1  (  0.178491,  0.178491,  0.178491 )     2.51450591
  WF centre and spread    2  (  0.178491, -0.178491, -0.178491 )     2.51450589
  WF centre and spread    3  ( -0.178491,  0.178491, -0.178491 )     2.51450590
  WF centre and spread    4  ( -0.178491, -0.178491,  0.178491 )     2.51450592
  WF centre and spread    5  (  1.805655,  1.805655,  1.805655 )     2.04684319
  WF centre and spread    6  (  1.805655,  0.909345,  0.909345 )     2.04684335
  WF centre and spread    7  (  0.909345,  1.805655,  0.909345 )     2.04684327
  WF centre and spread    8  (  0.909345,  0.909345,  1.805655 )     2.04684317
  Sum of centres and spreads (  5.430000,  5.430000,  5.430000 )    18.24539659
 
      0     0.182E+02     0.0000000000       18.2453965927       0.30  <-- CONV
        O_D=      0.1146253 O_OD=      4.4213441 O_TOT=     18.2453966 <-- SPRD
 ------------------------------------------------------------------------------
 Cycle:      1
  WF centre and spread    1  (  0.176396,  0.176396,  0.176396 )     2.47322619
  WF centre and spread    2  (  0.176396, -0.176396, -0.176396 )     2.47322618
  WF centre and spread    3  ( -0.176396,  0.176396, -0.176396 )     2.47322618
  WF centre and spread    4  ( -0.176396, -0.176396,  0.176396 )     2.47322620
  WF centre and spread    5  (  1.812955,  1.812955,  1.812955 )     1.99312971
  WF centre and spread    6  (  1.812955,  0.902045,  0.902045 )     1.99312986
  WF centre and spread    7  (  0.902045,  1.812955,  0.902045 )     1.99312978
  WF centre and spread    8  (  0.902045,  0.902045,  1.812955 )     1.99312968
  Sum of centres and spreads (  5.430000,  5.430000,  5.430000 )    17.86542377
 
      1    -0.380E+00     0.4062836183       17.8654237684       0.30  <-- CONV
        O_D=      0.1031493 O_OD=      4.0528473 O_TOT=     17.8654238 <-- SPRD
 Delta: O_D= -0.1147601E-01 O_OD= -0.3684968E+00 O_TOT= -0.3799728E+00 <-- DLTA
 ------------------------------------------------------------------------------
 Cycle:      2
  WF centre and spread    1  (  0.174822,  0.174822,  0.174822 )     2.44790843
  WF centre and spread    2  (  0.174822, -0.174822, -0.174822 )     2.44790842
  WF centre and spread    3  ( -0.174822,  0.174822, -0.174822 )     2.44790843
  WF centre and spread    4  ( -0.174822, -0.174822,  0.174822 )     2.44790844
  WF centre and spread    5  (  1.819487,  1.819487,  1.819487 )     1.95377179
  WF centre and spread    6  (  1.819487,  0.895513,  0.895513 )     1.95377193
  WF centre and spread    7  (  0.895513,  1.819487,  0.895513 )     1.95377186
  WF centre and spread    8  (  0.895513,  0.895513,  1.819487 )     1.95377177
  Sum of centres and spreads (  5.430000,  5.430000,  5.430000 )    17.60672107
 
      2    -0.259E+00     0.3370887729       17.6067210723       0.31  <-- CONV
        O_D=      0.1064217 O_OD=      3.7908721 O_TOT=     17.6067211 <-- SPRD
 Delta: O_D=  0.3272436E-02 O_OD= -0.2619751E+00 O_TOT= -0.2587027E+00 <-- DLTA
 ------------------------------------------------------------------------------
 Cycle:      3
  WF centre and spread    1  (  0.174570,  0.174570,  0.174570 )     2.43778495
  WF centre and spread    2  (  0.174570, -0.174570, -0.174570 )     2.43778494
  WF centre and spread    3  ( -0.174570,  0.174570, -0.174570 )     2.43778495
  WF centre and spread    4  ( -0.174570, -0.174570,  0.174570 )     2.43778496
  WF centre and spread    5  (  1.821934,  1.821934,  1.821934 )     1.93354824
  WF centre and spread    6  (  1.821934,  0.893066,  0.893066 )     1.93354837
  WF centre and spread    7  (  0.893066,  1.821934,  0.893066 )     1.93354830
  WF centre and spread    8  (  0.893066,  0.893066,  1.821934 )     1.93354822
  Sum of centres and spreads (  5.430000,  5.430000,  5.430000 )    17.48533294
 
      3    -0.121E+00     0.2818453436       17.4853329391       0.31  <-- CONV
        O_D=      0.0951250 O_OD=      3.6807807 O_TOT=     17.4853329 <-- SPRD
 Delta: O_D= -0.1129670E-01 O_OD= -0.1100914E+00 O_TOT= -0.1213881E+00 <-- DLTA
 ------------------------------------------------------------------------------
 Cycle:      4
  WF centre and spread    1  (  0.174590,  0.174590,  0.174590 )     2.43613008
  WF centre and spread    2  (  0.174590, -0.174590, -0.174589 )     2.43613007
  WF centre and spread    3  ( -0.174590,  0.174590, -0.174590 )     2.43613008
  WF centre and spread    4  ( -0.174590, -0.174589,  0.174590 )     2.43613009
  WF centre and spread    5  (  1.822522,  1.822522,  1.822522 )     1.92816655
  WF centre and spread    6  (  1.822522,  0.892478,  0.892478 )     1.92816667
  WF centre and spread    7  (  0.892478,  1.822522,  0.892478 )     1.92816661
  WF centre and spread    8  (  0.892478,  0.892478,  1.822522 )     1.92816653
  Sum of centres and spreads (  5.430000,  5.430000,  5.430000 )    17.45718669
 
      4    -0.281E-01     0.1495215348       17.4571866888       0.31  <-- CONV
        O_D=      0.0899806 O_OD=      3.6577788 O_TOT=     17.4571867 <-- SPRD
 Delta: O_D= -0.5144380E-02 O_OD= -0.2300187E-01 O_TOT= -0.2814625E-01 <-- DLTA
 ------------------------------------------------------------------------------
 Cycle:      5
  WF centre and spread    1  (  0.174611,  0.174611,  0.174611 )     2.43612118
  WF centre and spread    2  (  0.174611, -0.174611, -0.174611 )     2.43612117
  WF centre and spread    3  ( -0.174611,  0.174611, -0.174611 )     2.43612118
  WF centre and spread    4  ( -0.174611, -0.174611,  0.174611 )     2.43612120
  WF centre and spread    5  (  1.822766,  1.822766,  1.822766 )     1.92636962
  WF centre and spread    6  (  1.822766,  0.892234,  0.892234 )     1.92636974
  WF centre and spread    7  (  0.892234,  1.822766,  0.892234 )     1.92636968
  WF centre and spread    8  (  0.892234,  0.892234,  1.822766 )     1.92636960
  Sum of centres and spreads (  5.430000,  5.430000,  5.430000 )    17.44996337
 
      5    -0.722E-02     0.0762525114       17.4499633705       0.31  <-- CONV
        O_D=      0.0883608 O_OD=      3.6521753 O_TOT=     17.4499634 <-- SPRD
 Delta: O_D= -0.1619832E-02 O_OD= -0.5603486E-02 O_TOT= -0.7223318E-02 <-- DLTA
 ------------------------------------------------------------------------------
 Cycle:      6
  WF centre and spread    1  (  0.174620,  0.174620,  0.174620 )     2.43677428
  WF centre and spread    2  (  0.174620, -0.174620, -0.174620 )     2.43677428
  WF centre and spread    3  ( -0.174620,  0.174620, -0.174620 )     2.43677428
  WF centre and spread    4  ( -0.174620, -0.174620,  0.174620 )     2.43677430
  WF centre and spread    5  (  1.822961,  1.822961,  1.822961 )     1.92489469
  WF centre and spread    6  (  1.822961,  0.892039,  0.892039 )     1.92489482
  WF centre and spread    7  (  0.892039,  1.822961,  0.892039 )     1.92489475
  WF centre and spread    8  (  0.892039,  0.892039,  1.822961 )     1.92489467
  Sum of centres and spreads (  5.430000,  5.430000,  5.430000 )    17.44667608
 
      6    -0.329E-02     0.0461384614       17.4466760818       0.31  <-- CONV
        O_D=      0.0874289 O_OD=      3.6498199 O_TOT=     17.4466761 <-- SPRD
 Delta: O_D= -0.9318896E-03 O_OD= -0.2355399E-02 O_TOT= -0.3287289E-02 <-- DLTA
 ------------------------------------------------------------------------------
 Cycle:      7
  WF centre and spread    1  (  0.174584,  0.174584,  0.174585 )     2.43719076
  WF centre and spread    2  (  0.174585, -0.174585, -0.174584 )     2.43719075
  WF centre and spread    3  ( -0.174584,  0.174584, -0.174585 )     2.43719076
  WF centre and spread    4  ( -0.174585, -0.174584,  0.174584 )     2.43719078
  WF centre and spread    5  (  1.822990,  1.822990,  1.822990 )     1.92423391
  WF centre and spread    6  (  1.822990,  0.892010,  0.892010 )     1.92423403
  WF centre and spread    7  (  0.892010,  1.822990,  0.892010 )     1.92423397
  WF centre and spread    8  (  0.892010,  0.892010,  1.822990 )     1.92423389
  Sum of centres and spreads (  5.430000,  5.430000,  5.430000 )    17.44569884
 
      7    -0.977E-03     0.0301360567       17.4456988401       0.32  <-- CONV
        O_D=      0.0873024 O_OD=      3.6489692 O_TOT=     17.4456988 <-- SPRD
 Delta: O_D= -0.1264719E-03 O_OD= -0.8507698E-03 O_TOT= -0.9772417E-03 <-- DLTA
 ------------------------------------------------------------------------------
 Cycle:      8
  WF centre and spread    1  (  0.174520,  0.174520,  0.174520 )     2.43822878
  WF centre and spread    2  (  0.174520, -0.174520, -0.174520 )     2.43822876
  WF centre and spread    3  ( -0.174520,  0.174520, -0.174520 )     2.43822877
  WF centre and spread    4  ( -0.174520, -0.174520,  0.174520 )     2.43822879
  WF centre and spread    5  (  1.823049,  1.823049,  1.823049 )     1.92305018
  WF centre and spread    6  (  1.823049,  0.891951,  0.891951 )     1.92305030
  WF centre and spread    7  (  0.891951,  1.823049,  0.891951 )     1.92305024
  WF centre and spread    8  (  0.891951,  0.891951,  1.823049 )     1.92305016
  Sum of centres and spreads (  5.430000,  5.430000,  5.430000 )    17.44511598
 
      8    -0.583E-03     0.0185253859       17.4451159837       0.32  <-- CONV
        O_D=      0.0872683 O_OD=      3.6484204 O_TOT=     17.4451160 <-- SPRD
 Delta: O_D= -0.3408835E-04 O_OD= -0.5487681E-03 O_TOT= -0.5828564E-03 <-- DLTA
 ------------------------------------------------------------------------------
 Cycle:      9
  WF centre and spread    1  (  0.174441,  0.174441,  0.174441 )     2.43950928
  WF centre and spread    2  (  0.174441, -0.174441, -0.174441 )     2.43950926
  WF centre and spread    3  ( -0.174441,  0.174441, -0.174441 )     2.43950927
  WF centre and spread    4  ( -0.174441, -0.174441,  0.174441 )     2.43950929
  WF centre and spread    5  (  1.823107,  1.823107,  1.823107 )     1.92168043
  WF centre and spread    6  (  1.823107,  0.891893,  0.891893 )     1.92168055
  WF centre and spread    7  (  0.891893,  1.823107,  0.891893 )     1.92168049
  WF centre and spread    8  (  0.891893,  0.891893,  1.823107 )     1.92168041
  Sum of centres and spreads (  5.430000,  5.430000,  5.430000 )    17.44475897
 
      9    -0.357E-03     0.0145914075       17.4447589664       0.32  <-- CONV
        O_D=      0.0872809 O_OD=      3.6480508 O_TOT=     17.4447590 <-- SPRD
 Delta: O_D=  0.1259892E-04 O_OD= -0.3696162E-03 O_TOT= -0.3570173E-03 <-- DLTA
 ------------------------------------------------------------------------------
 Cycle:     10
  WF centre and spread    1  (  0.174373,  0.174373,  0.174373 )     2.44069871
  WF centre and spread    2  (  0.174373, -0.174373, -0.174373 )     2.44069869
  WF centre and spread    3  ( -0.174373,  0.174373, -0.174373 )     2.44069871
  WF centre and spread    4  ( -0.174373, -0.174373,  0.174373 )     2.44069873
  WF centre and spread    5  (  1.823148,  1.823148,  1.823148 )     1.92044198
  WF centre and spread    6  (  1.823148,  0.891852,  0.891852 )     1.92044211
  WF centre and spread    7  (  0.891852,  1.823148,  0.891852 )     1.92044205
  WF centre and spread    8  (  0.891852,  0.891852,  1.823148 )     1.92044197
  Sum of centres and spreads (  5.430000,  5.430000,  5.430000 )    17.44456295
 
     10    -0.196E-03     0.0109678020       17.4445629457       0.32  <-- CONV
        O_D=      0.0872714 O_OD=      3.6478643 O_TOT=     17.4445629 <-- SPRD
 Delta: O_D= -0.9528979E-05 O_OD= -0.1864917E-03 O_TOT= -0.1960207E-03 <-- DLTA
 ------------------------------------------------------------------------------
 Cycle:     11
  WF centre and spread    1  (  0.174328,  0.174328,  0.174328 )     2.44159677
  WF centre and spread    2  (  0.174328, -0.174328, -0.174328 )     2.44159675
  WF centre and spread    3  ( -0.174328,  0.174328, -0.174328 )     2.44159676
  WF centre and spread    4  ( -0.174328, -0.174328,  0.174328 )     2.44159678
  WF centre and spread    5  (  1.823164,  1.823164,  1.823164 )     1.91952151
  WF centre and spread    6  (  1.823164,  0.891836,  0.891836 )     1.91952164
  WF centre and spread    7  (  0.891836,  1.823164,  0.891836 )     1.91952158
  WF centre and spread    8  (  0.891836,  0.891836,  1.823164 )     1.91952150
  Sum of centres and spreads (  5.430000,  5.430000,  5.430000 )    17.44447327
 
     11    -0.897E-04     0.0072323670       17.4444732706       0.32  <-- CONV
        O_D=      0.0872520 O_OD=      3.6477940 O_TOT=     17.4444733 <-- SPRD
 Delta: O_D= -0.1940266E-04 O_OD= -0.7027246E-04 O_TOT= -0.8967512E-04 <-- DLTA
 ------------------------------------------------------------------------------
 Cycle:     12
  WF centre and spread    1  (  0.174284,  0.174284,  0.174284 )     2.44250905
  WF centre and spread    2  (  0.174284, -0.174284, -0.174284 )     2.44250902
  WF centre and spread    3  ( -0.174284,  0.174284, -0.174284 )     2.44250904
  WF centre and spread    4  ( -0.174284, -0.174284,  0.174284 )     2.44250906
  WF centre and spread    5  (  1.823171,  1.823171,  1.823171 )     1.91859400
  WF centre and spread    6  (  1.823171,  0.891829,  0.891829 )     1.91859413
  WF centre and spread    7  (  0.891829,  1.823171,  0.891829 )     1.91859407
  WF centre and spread    8  (  0.891829,  0.891829,  1.823171 )     1.91859399
  Sum of centres and spreads (  5.430000,  5.430000,  5.430000 )    17.44441236
 
     12    -0.609E-04     0.0053877050       17.4444123630       0.32  <-- CONV
        O_D=      0.0872239 O_OD=      3.6477612 O_TOT=     17.4444124 <-- SPRD
 Delta: O_D= -0.2807870E-04 O_OD= -0.3282886E-04 O_TOT= -0.6090757E-04 <-- DLTA
 ------------------------------------------------------------------------------
 Cycle:     13
  WF centre and spread    1  (  0.174278,  0.174278,  0.174278 )     2.44260577
  WF centre and spread    2  (  0.174278, -0.174278, -0.174278 )     2.44260575
  WF centre and spread    3  ( -0.174278,  0.174278, -0.174278 )     2.44260576
  WF centre and spread    4  ( -0.174278, -0.174278,  0.174278 )     2.44260578
  WF centre and spread    5  (  1.823174,  1.823174,  1.823174 )     1.91849135
  WF centre and spread    6  (  1.823174,  0.891826,  0.891826 )     1.91849147
  WF centre and spread    7  (  0.891826,  1.823174,  0.891826 )     1.91849141
  WF centre and spread    8  (  0.891826,  0.891826,  1.823174 )     1.91849133
  Sum of centres and spreads (  5.430000,  5.430000,  5.430000 )    17.44438863
 
     13    -0.237E-04     0.0044550253       17.4443886345       0.33  <-- CONV
        O_D=      0.0872180 O_OD=      3.6477434 O_TOT=     17.4443886 <-- SPRD
 Delta: O_D= -0.5918052E-05 O_OD= -0.1781046E-04 O_TOT= -0.2372851E-04 <-- DLTA
 ------------------------------------------------------------------------------
 Cycle:     14
  WF centre and spread    1  (  0.174270,  0.174270,  0.174270 )     2.44280152
  WF centre and spread    2  (  0.174270, -0.174270, -0.174270 )     2.44280149
  WF centre and spread    3  ( -0.174270,  0.174270, -0.174270 )     2.44280150
  WF centre and spread    4  ( -0.174270, -0.174270,  0.174270 )     2.44280153
  WF centre and spread    5  (  1.823175,  1.823175,  1.823175 )     1.91829182
  WF centre and spread    6  (  1.823175,  0.891825,  0.891825 )     1.91829195
  WF centre and spread    7  (  0.891825,  1.823175,  0.891825 )     1.91829188
  WF centre and spread    8  (  0.891825,  0.891825,  1.823175 )     1.91829181
  Sum of centres and spreads (  5.430000,  5.430000,  5.430000 )    17.44437349
 
     14    -0.151E-04     0.0030761148       17.4443734930       0.33  <-- CONV
        O_D=      0.0872167 O_OD=      3.6477295 O_TOT=     17.4443735 <-- SPRD
 Delta: O_D= -0.1263126E-05 O_OD= -0.1387840E-04 O_TOT= -0.1514152E-04 <-- DLTA
 ------------------------------------------------------------------------------
 Cycle:     15
  WF centre and spread    1  (  0.174262,  0.174262,  0.174262 )     2.44311746
  WF centre and spread    2  (  0.174262, -0.174262, -0.174262 )     2.44311742
  WF centre and spread    3  ( -0.174262,  0.174262, -0.174262 )     2.44311744
  WF centre and spread    4  ( -0.174262, -0.174262,  0.174262 )     2.44311747
  WF centre and spread    5  (  1.823170,  1.823170,  1.823170 )     1.91797297
  WF centre and spread    6  (  1.823170,  0.891830,  0.891830 )     1.91797309
  WF centre and spread    7  (  0.891830,  1.823170,  0.891830 )     1.91797303
  WF centre and spread    8  (  0.891830,  0.891830,  1.823170 )     1.91797295
  Sum of centres and spreads (  5.430000,  5.430000,  5.430000 )    17.44436183
 
     15    -0.117E-04     0.0023343174       17.4443618294       0.33  <-- CONV
        O_D=      0.0872190 O_OD=      3.6477155 O_TOT=     17.4443618 <-- SPRD
 Delta: O_D=  0.2298043E-05 O_OD= -0.1396161E-04 O_TOT= -0.1166357E-04 <-- DLTA
 ------------------------------------------------------------------------------
 Cycle:     16
  WF centre and spread    1  (  0.174256,  0.174256,  0.174256 )     2.44346555
  WF centre and spread    2  (  0.174256, -0.174256, -0.174256 )     2.44346551
  WF centre and spread    3  ( -0.174256,  0.174256, -0.174256 )     2.44346553
  WF centre and spread    4  ( -0.174256, -0.174256,  0.174256 )     2.44346556
  WF centre and spread    5  (  1.823166,  1.823166,  1.823166 )     1.91762275
  WF centre and spread    6  (  1.823166,  0.891834,  0.891834 )     1.91762288
  WF centre and spread    7  (  0.891834,  1.823166,  0.891834 )     1.91762282
  WF centre and spread    8  (  0.891834,  0.891834,  1.823166 )     1.91762274
  Sum of centres and spreads (  5.430000,  5.430000,  5.430000 )    17.44435336
 
     16    -0.847E-05     0.0021265593       17.4443533617       0.33  <-- CONV
        O_D=      0.0872198 O_OD=      3.6477063 O_TOT=     17.4443534 <-- SPRD
 Delta: O_D=  0.7423425E-06 O_OD= -0.9210085E-05 O_TOT= -0.8467743E-05 <-- DLTA
 ------------------------------------------------------------------------------
 Cycle:     17
  WF centre and spread    1  (  0.174251,  0.174251,  0.174251 )     2.44373141
  WF centre and spread    2  (  0.174251, -0.174251, -0.174251 )     2.44373136
  WF centre and spread    3  ( -0.174251,  0.174251, -0.174251 )     2.44373138
  WF centre and spread    4  ( -0.174251, -0.174251,  0.174251 )     2.44373142
  WF centre and spread    5  (  1.823165,  1.823165,  1.823165 )     1.91735577
  WF centre and spread    6  (  1.823165,  0.891835,  0.891835 )     1.91735590
  WF centre and spread    7  (  0.891835,  1.823165,  0.891835 )     1.91735584
  WF centre and spread    8  (  0.891835,  0.891835,  1.823165 )     1.91735576
  Sum of centres and spreads (  5.430000,  5.430000,  5.430000 )    17.44434884
 
     17    -0.453E-05     0.0016431609       17.4443488360       0.33  <-- CONV
        O_D=      0.0872220 O_OD=      3.6476995 O_TOT=     17.4443488 <-- SPRD
 Delta: O_D=  0.2271156E-05 O_OD= -0.6796863E-05 O_TOT= -0.4525707E-05 <-- DLTA
 ------------------------------------------------------------------------------
 Cycle:     18
  WF centre and spread    1  (  0.174249,  0.174249,  0.174249 )     2.44394829
  WF centre and spread    2  (  0.174249, -0.174249, -0.174249 )     2.44394824
  WF centre and spread    3  ( -0.174249,  0.174249, -0.174249 )     2.44394826
  WF centre and spread    4  ( -0.174249, -0.174249,  0.174249 )     2.44394830
  WF centre and spread    5  (  1.823165,  1.823165,  1.823165 )     1.91713823
  WF centre and spread    6  (  1.823165,  0.891835,  0.891835 )     1.91713836
  WF centre and spread    7  (  0.891835,  1.823165,  0.891835 )     1.91713830
  WF centre and spread    8  (  0.891835,  0.891835,  1.823165 )     1.91713822
  Sum of centres and spreads (  5.430000,  5.430000,  5.430000 )    17.44434620
 
     18    -0.263E-05     0.0012842353       17.4443462025       0.33  <-- CONV
        O_D=      0.0872287 O_OD=      3.6476902 O_TOT=     17.4443462 <-- SPRD
 Delta: O_D=  0.6665608E-05 O_OD= -0.9299098E-05 O_TOT= -0.2633490E-05 <-- DLTA
 ------------------------------------------------------------------------------
 Cycle:     19
  WF centre and spread    1  (  0.174249,  0.174249,  0.174250 )     2.44398617
  WF centre and spread    2  (  0.174250, -0.174250, -0.174249 )     2.44398612
  WF centre and spread    3  ( -0.174249,  0.174250, -0.174250 )     2.44398614
  WF centre and spread    4  ( -0.174250, -0.174249,  0.174249 )     2.44398617
  WF centre and spread    5  (  1.823165,  1.823165,  1.823165 )     1.91710004
  WF centre and spread    6  (  1.823165,  0.891835,  0.891835 )     1.91710017
  WF centre and spread    7  (  0.891835,  1.823165,  0.891835 )     1.91710011
  WF centre and spread    8  (  0.891835,  0.891835,  1.823165 )     1.91710003
  Sum of centres and spreads (  5.430000,  5.430000,  5.430000 )    17.44434494
 
     19    -0.127E-05     0.0010484007       17.4443449354       0.34  <-- CONV
        O_D=      0.0872313 O_OD=      3.6476864 O_TOT=     17.4443449 <-- SPRD
 Delta: O_D=  0.2576049E-05 O_OD= -0.3843096E-05 O_TOT= -0.1267047E-05 <-- DLTA
 ------------------------------------------------------------------------------
 Cycle:     20
  WF centre and spread    1  (  0.174250,  0.174250,  0.174250 )     2.44405918
  WF centre and spread    2  (  0.174250, -0.174250, -0.174250 )     2.44405912
  WF centre and spread    3  ( -0.174250,  0.174250, -0.174250 )     2.44405915
  WF centre and spread    4  ( -0.174250, -0.174250,  0.174250 )     2.44405918
  WF centre and spread    5  (  1.823166,  1.823165,  1.823165 )     1.91702682
  WF centre and spread    6  (  1.823165,  0.891835,  0.891834 )     1.91702695
  WF centre and spread    7  (  0.891834,  1.823165,  0.891835 )     1.91702689
  WF centre and spread    8  (  0.891835,  0.891834,  1.823165 )     1.91702681
  Sum of centres and spreads (  5.430000,  5.430000,  5.430000 )    17.44434410
 
     20    -0.836E-06     0.0007304084       17.4443440997       0.34  <-- CONV
        O_D=      0.0872360 O_OD=      3.6476809 O_TOT=     17.4443441 <-- SPRD
 Delta: O_D=  0.4699276E-05 O_OD= -0.5535027E-05 O_TOT= -0.8357507E-06 <-- DLTA
 ------------------------------------------------------------------------------
 Cycle:     21
  WF centre and spread    1  (  0.174249,  0.174249,  0.174249 )     2.44415253
  WF centre and spread    2  (  0.174249, -0.174250, -0.174249 )     2.44415247
  WF centre and spread    3  ( -0.174249,  0.174249, -0.174250 )     2.44415249
  WF centre and spread    4  ( -0.174250, -0.174249,  0.174249 )     2.44415253
  WF centre and spread    5  (  1.823166,  1.823166,  1.823166 )     1.91693334
  WF centre and spread    6  (  1.823166,  0.891834,  0.891834 )     1.91693347
  WF centre and spread    7  (  0.891834,  1.823166,  0.891834 )     1.91693341
  WF centre and spread    8  (  0.891834,  0.891834,  1.823166 )     1.91693333
  Sum of centres and spreads (  5.430000,  5.430000,  5.430000 )    17.44434359
 
     21    -0.514E-06     0.0005288768       17.4443435860       0.34  <-- CONV
        O_D=      0.0872399 O_OD=      3.6476765 O_TOT=     17.4443436 <-- SPRD
 Delta: O_D=  0.3881316E-05 O_OD= -0.4395008E-05 O_TOT= -0.5136917E-06 <-- DLTA
 ------------------------------------------------------------------------------
 Cycle:     22
  WF centre and spread    1  (  0.174249,  0.174249,  0.174249 )     2.44423361
  WF centre and spread    2  (  0.174249, -0.174249, -0.174249 )     2.44423355
  WF centre and spread    3  ( -0.174249,  0.174249, -0.174249 )     2.44423357
  WF centre and spread    4  ( -0.174249, -0.174249,  0.174249 )     2.44423361
  WF centre and spread    5  (  1.823166,  1.823166,  1.823166 )     1.91685220
  WF centre and spread    6  (  1.823166,  0.891834,  0.891834 )     1.91685233
  WF centre and spread    7  (  0.891834,  1.823166,  0.891834 )     1.91685227
  WF centre and spread    8  (  0.891834,  0.891834,  1.823166 )     1.91685219
  Sum of centres and spreads (  5.430000,  5.430000,  5.430000 )    17.44434333
 
     22    -0.256E-06     0.0003949907       17.4443433299       0.34  <-- CONV
        O_D=      0.0872418 O_OD=      3.6476743 O_TOT=     17.4443433 <-- SPRD
 Delta: O_D=  0.1931493E-05 O_OD= -0.2187593E-05 O_TOT= -0.2561001E-06 <-- DLTA
 ------------------------------------------------------------------------------
 Cycle:     23
  WF centre and spread    1  (  0.174249,  0.174249,  0.174249 )     2.44430483
  WF centre and spread    2  (  0.174249, -0.174249, -0.174249 )     2.44430476
  WF centre and spread    3  ( -0.174249,  0.174249, -0.174249 )     2.44430478
  WF centre and spread    4  ( -0.174249, -0.174249,  0.174249 )     2.44430483
  WF centre and spread    5  (  1.823165,  1.823165,  1.823165 )     1.91678095
  WF centre and spread    6  (  1.823165,  0.891835,  0.891835 )     1.91678108
  WF centre and spread    7  (  0.891835,  1.823165,  0.891835 )     1.91678102
  WF centre and spread    8  (  0.891835,  0.891835,  1.823165 )     1.91678094
  Sum of centres and spreads (  5.430000,  5.430000,  5.430000 )    17.44434319
 
     23    -0.140E-06     0.0002860466       17.4443431900       0.34  <-- CONV
        O_D=      0.0872428 O_OD=      3.6476732 O_TOT=     17.4443432 <-- SPRD
 Delta: O_D=  0.9652334E-06 O_OD= -0.1105136E-05 O_TOT= -0.1399022E-06 <-- DLTA
 ------------------------------------------------------------------------------
 Cycle:     24
  WF centre and spread    1  (  0.174249,  0.174249,  0.174249 )     2.44437330
  WF centre and spread    2  (  0.174249, -0.174249, -0.174249 )     2.44437322
  WF centre and spread    3  ( -0.174249,  0.174249, -0.174249 )     2.44437325
  WF centre and spread    4  ( -0.174249, -0.174249,  0.174249 )     2.44437330
  WF centre and spread    5  (  1.823165,  1.823165,  1.823165 )     1.91671246
  WF centre and spread    6  (  1.823165,  0.891835,  0.891835 )     1.91671259
  WF centre and spread    7  (  0.891835,  1.823165,  0.891835 )     1.91671253
  WF centre and spread    8  (  0.891835,  0.891835,  1.823165 )     1.91671245
  Sum of centres and spreads (  5.430000,  5.430000,  5.430000 )    17.44434309
 
     24    -0.998E-07     0.0002514743       17.4443430902       0.34  <-- CONV
        O_D=      0.0872430 O_OD=      3.6476728 O_TOT=     17.4443431 <-- SPRD
 Delta: O_D=  0.2788743E-06 O_OD= -0.3786655E-06 O_TOT= -0.9979119E-07 <-- DLTA
 ------------------------------------------------------------------------------
 Cycle:     25
  WF centre and spread    1  (  0.174249,  0.174249,  0.174249 )     2.44438068
  WF centre and spread    2  (  0.174249, -0.174249, -0.174249 )     2.44438061
  WF centre and spread    3  ( -0.174249,  0.174249, -0.174249 )     2.44438064
  WF centre and spread    4  ( -0.174249, -0.174249,  0.174249 )     2.44438068
  WF centre and spread    5  (  1.823165,  1.823165,  1.823165 )     1.91670506
  WF centre and spread    6  (  1.823165,  0.891835,  0.891835 )     1.91670519
  WF centre and spread    7  (  0.891835,  1.823165,  0.891835 )     1.91670513
  WF centre and spread    8  (  0.891835,  0.891835,  1.823165 )     1.91670505
  Sum of centres and spreads (  5.430000,  5.430000,  5.430000 )    17.44434304
 
     25    -0.545E-07     0.0002267601       17.4443430357       0.35  <-- CONV
        O_D=      0.0872427 O_OD=      3.6476731 O_TOT=     17.4443430 <-- SPRD
 Delta: O_D= -0.3358943E-06 O_OD=  0.2813936E-06 O_TOT= -0.5450068E-07 <-- DLTA
 ------------------------------------------------------------------------------
 Cycle:     26
  WF centre and spread    1  (  0.174249,  0.174249,  0.174249 )     2.44439578
  WF centre and spread    2  (  0.174249, -0.174249, -0.174249 )     2.44439570
  WF centre and spread    3  ( -0.174249,  0.174249, -0.174249 )     2.44439573
  WF centre and spread    4  ( -0.174249, -0.174249,  0.174249 )     2.44439577
  WF centre and spread    5  (  1.823165,  1.823165,  1.823165 )     1.91668996
  WF centre and spread    6  (  1.823165,  0.891835,  0.891835 )     1.91669009
  WF centre and spread    7  (  0.891835,  1.823165,  0.891835 )     1.91669003
  WF centre and spread    8  (  0.891835,  0.891835,  1.823165 )     1.91668995
  Sum of centres and spreads (  5.430000,  5.430000,  5.430000 )    17.44434299
 
     26    -0.413E-07     0.0001690660       17.4443429944       0.35  <-- CONV
        O_D=      0.0872424 O_OD=      3.6476734 O_TOT=     17.4443430 <-- SPRD
 Delta: O_D= -0.3555384E-06 O_OD=  0.3142153E-06 O_TOT= -0.4132307E-07 <-- DLTA
 ------------------------------------------------------------------------------
 Cycle:     27
  WF centre and spread    1  (  0.174249,  0.174249,  0.174249 )     2.44441759
  WF centre and spread    2  (  0.174249, -0.174249, -0.174249 )     2.44441750
  WF centre and spread    3  ( -0.174249,  0.174249, -0.174249 )     2.44441753
  WF centre and spread    4  ( -0.174249, -0.174249,  0.174249 )     2.44441758
  WF centre and spread    5  (  1.823164,  1.823164,  1.823164 )     1.91666815
  WF centre and spread    6  (  1.823164,  0.891836,  0.891836 )     1.91666828
  WF centre and spread    7  (  0.891836,  1.823164,  0.891836 )     1.91666821
  WF centre and spread    8  (  0.891836,  0.891836,  1.823164 )     1.91666813
  Sum of centres and spreads (  5.430000,  5.430000,  5.430000 )    17.44434296
 
     27    -0.296E-07     0.0001247967       17.4443429648       0.35  <-- CONV
        O_D=      0.0872423 O_OD=      3.6476734 O_TOT=     17.4443430 <-- SPRD
 Delta: O_D= -0.8969748E-08 O_OD= -0.2062663E-07 O_TOT= -0.2959638E-07 <-- DLTA
 ------------------------------------------------------------------------------
 Cycle:     28
  WF centre and spread    1  (  0.174249,  0.174249,  0.174249 )     2.44444244
  WF centre and spread    2  (  0.174249, -0.174249, -0.174248 )     2.44444235
  WF centre and spread    3  ( -0.174249,  0.174249, -0.174249 )     2.44444238
  WF centre and spread    4  ( -0.174249, -0.174248,  0.174249 )     2.44444243
  WF centre and spread    5  (  1.823164,  1.823164,  1.823164 )     1.91664329
  WF centre and spread    6  (  1.823164,  0.891836,  0.891836 )     1.91664342
  WF centre and spread    7  (  0.891836,  1.823164,  0.891836 )     1.91664336
  WF centre and spread    8  (  0.891836,  0.891836,  1.823164 )     1.91664328
  Sum of centres and spreads (  5.430000,  5.430000,  5.430000 )    17.44434294
 
     28    -0.224E-07     0.0001109997       17.4443429424       0.35  <-- CONV
        O_D=      0.0872424 O_OD=      3.6476733 O_TOT=     17.4443429 <-- SPRD
 Delta: O_D=  0.6009311E-07 O_OD= -0.8251210E-07 O_TOT= -0.2241898E-07 <-- DLTA
 ------------------------------------------------------------------------------
 Cycle:     29
  WF centre and spread    1  (  0.174249,  0.174249,  0.174249 )     2.44446236
  WF centre and spread    2  (  0.174249, -0.174249, -0.174248 )     2.44446226
  WF centre and spread    3  ( -0.174248,  0.174249, -0.174249 )     2.44446230
  WF centre and spread    4  ( -0.174249, -0.174248,  0.174249 )     2.44446235
  WF centre and spread    5  (  1.823164,  1.823164,  1.823164 )     1.91662337
  WF centre and spread    6  (  1.823164,  0.891836,  0.891836 )     1.91662350
  WF centre and spread    7  (  0.891836,  1.823164,  0.891836 )     1.91662344
  WF centre and spread    8  (  0.891836,  0.891836,  1.823164 )     1.91662336
  Sum of centres and spreads (  5.430000,  5.430000,  5.430000 )    17.44434293
 
     29    -0.132E-07     0.0000875715       17.4443429292       0.35  <-- CONV
        O_D=      0.0872425 O_OD=      3.6476731 O_TOT=     17.4443429 <-- SPRD
 Delta: O_D=  0.1392605E-06 O_OD= -0.1524459E-06 O_TOT= -0.1318540E-07 <-- DLTA
 ------------------------------------------------------------------------------
 Cycle:     30
  WF centre and spread    1  (  0.174248,  0.174249,  0.174249 )     2.44447716
  WF centre and spread    2  (  0.174249, -0.174249, -0.174248 )     2.44447705
  WF centre and spread    3  ( -0.174248,  0.174249, -0.174249 )     2.44447709
  WF centre and spread    4  ( -0.174249, -0.174248,  0.174249 )     2.44447715
  WF centre and spread    5  (  1.823164,  1.823164,  1.823164 )     1.91660857
  WF centre and spread    6  (  1.823164,  0.891836,  0.891836 )     1.91660870
  WF centre and spread    7  (  0.891836,  1.823164,  0.891836 )     1.91660864
  WF centre and spread    8  (  0.891836,  0.891836,  1.823164 )     1.91660856
  Sum of centres and spreads (  5.430000,  5.430000,  5.430000 )    17.44434292
 
     30    -0.748E-08     0.0000685588       17.4443429217       0.35  <-- CONV
        O_D=      0.0872429 O_OD=      3.6476728 O_TOT=     17.4443429 <-- SPRD
 Delta: O_D=  0.3491589E-06 O_OD= -0.3566392E-06 O_TOT= -0.7480338E-08 <-- DLTA
 ------------------------------------------------------------------------------
 Cycle:     31
  WF centre and spread    1  (  0.174249,  0.174249,  0.174249 )     2.44447909
  WF centre and spread    2  (  0.174249, -0.174249, -0.174248 )     2.44447898
  WF centre and spread    3  ( -0.174248,  0.174249, -0.174249 )     2.44447902
  WF centre and spread    4  ( -0.174249, -0.174248,  0.174249 )     2.44447907
  WF centre and spread    5  (  1.823164,  1.823164,  1.823164 )     1.91660664
  WF centre and spread    6  (  1.823164,  0.891836,  0.891836 )     1.91660678
  WF centre and spread    7  (  0.891836,  1.823164,  0.891836 )     1.91660671
  WF centre and spread    8  (  0.891836,  0.891836,  1.823164 )     1.91660663
  Sum of centres and spreads (  5.430000,  5.430000,  5.430000 )    17.44434292
 
     31    -0.408E-08     0.0000574299       17.4443429176       0.35  <-- CONV
        O_D=      0.0872431 O_OD=      3.6476725 O_TOT=     17.4443429 <-- SPRD
 Delta: O_D=  0.2263532E-06 O_OD= -0.2304327E-06 O_TOT= -0.4079514E-08 <-- DLTA
 ------------------------------------------------------------------------------
 Cycle:     32
  WF centre and spread    1  (  0.174249,  0.174249,  0.174249 )     2.44448272
  WF centre and spread    2  (  0.174249, -0.174249, -0.174248 )     2.44448261
  WF centre and spread    3  ( -0.174248,  0.174249, -0.174249 )     2.44448265
  WF centre and spread    4  ( -0.174249, -0.174248,  0.174249 )     2.44448271
  WF centre and spread    5  (  1.823164,  1.823164,  1.823164 )     1.91660301
  WF centre and spread    6  (  1.823164,  0.891836,  0.891836 )     1.91660315
  WF centre and spread    7  (  0.891836,  1.823164,  0.891836 )     1.91660308
  WF centre and spread    8  (  0.891836,  0.891836,  1.823164 )     1.91660300
  Sum of centres and spreads (  5.430000,  5.430000,  5.430000 )    17.44434291
 
     32    -0.278E-08     0.0000414274       17.4443429148       0.36  <-- CONV
        O_D=      0.0872434 O_OD=      3.6476722 O_TOT=     17.4443429 <-- SPRD
 Delta: O_D=  0.3247721E-06 O_OD= -0.3275475E-06 O_TOT= -0.2775352E-08 <-- DLTA
 ------------------------------------------------------------------------------
 Cycle:     33
  WF centre and spread    1  (  0.174248,  0.174249,  0.174249 )     2.44448679
  WF centre and spread    2  (  0.174249, -0.174249, -0.174248 )     2.44448668
  WF centre and spread    3  ( -0.174248,  0.174249, -0.174249 )     2.44448672
  WF centre and spread    4  ( -0.174249, -0.174248,  0.174249 )     2.44448678
  WF centre and spread    5  (  1.823164,  1.823164,  1.823164 )     1.91659894
  WF centre and spread    6  (  1.823164,  0.891836,  0.891836 )     1.91659907
  WF centre and spread    7  (  0.891836,  1.823164,  0.891836 )     1.91659901
  WF centre and spread    8  (  0.891836,  0.891836,  1.823164 )     1.91659893
  Sum of centres and spreads (  5.430000,  5.430000,  5.430000 )    17.44434291
 
     33    -0.154E-08     0.0000300305       17.4443429133       0.36  <-- CONV
        O_D=      0.0872437 O_OD=      3.6476720 O_TOT=     17.4443429 <-- SPRD
 Delta: O_D=  0.2194517E-06 O_OD= -0.2209880E-06 O_TOT= -0.1536268E-08 <-- DLTA
 ------------------------------------------------------------------------------
 Cycle:     34
  WF centre and spread    1  (  0.174248,  0.174249,  0.174249 )     2.44449084
  WF centre and spread    2  (  0.174249, -0.174249, -0.174248 )     2.44449072
  WF centre and spread    3  ( -0.174248,  0.174249, -0.174249 )     2.44449076
  WF centre and spread    4  ( -0.174249, -0.174248,  0.174249 )     2.44449082
  WF centre and spread    5  (  1.823164,  1.823164,  1.823164 )     1.91659490
  WF centre and spread    6  (  1.823164,  0.891836,  0.891836 )     1.91659503
  WF centre and spread    7  (  0.891836,  1.823164,  0.891836 )     1.91659497
  WF centre and spread    8  (  0.891836,  0.891836,  1.823164 )     1.91659489
  Sum of centres and spreads (  5.430000,  5.430000,  5.430000 )    17.44434291
 
     34    -0.760E-09     0.0000232365       17.4443429125       0.36  <-- CONV
        O_D=      0.0872438 O_OD=      3.6476719 O_TOT=     17.4443429 <-- SPRD
 Delta: O_D=  0.1388665E-06 O_OD= -0.1396266E-06 O_TOT= -0.7600960E-09 <-- DLTA
 ------------------------------------------------------------------------------
 Cycle:     35
  WF centre and spread    1  (  0.174248,  0.174249,  0.174249 )     2.44449402
  WF centre and spread    2  (  0.174249, -0.174249, -0.174248 )     2.44449389
  WF centre and spread    3  ( -0.174248,  0.174249, -0.174249 )     2.44449394
  WF centre and spread    4  ( -0.174249, -0.174248,  0.174249 )     2.44449400
  WF centre and spread    5  (  1.823164,  1.823164,  1.823164 )     1.91659172
  WF centre and spread    6  (  1.823164,  0.891836,  0.891836 )     1.91659185
  WF centre and spread    7  (  0.891836,  1.823164,  0.891836 )     1.91659179
  WF centre and spread    8  (  0.891836,  0.891836,  1.823164 )     1.91659170
  Sum of centres and spreads (  5.430000,  5.430000,  5.430000 )    17.44434291
 
     35    -0.457E-09     0.0000198273       17.4443429121       0.36  <-- CONV
        O_D=      0.0872439 O_OD=      3.6476718 O_TOT=     17.4443429 <-- SPRD
 Delta: O_D=  0.8355130E-07 O_OD= -0.8400817E-07 O_TOT= -0.4568683E-09 <-- DLTA
 ------------------------------------------------------------------------------
 Cycle:     36
  WF centre and spread    1  (  0.174248,  0.174249,  0.174249 )     2.44449705
  WF centre and spread    2  (  0.174249, -0.174249, -0.174248 )     2.44449691
  WF centre and spread    3  ( -0.174248,  0.174249, -0.174249 )     2.44449696
  WF centre and spread    4  ( -0.174249, -0.174248,  0.174249 )     2.44449703
  WF centre and spread    5  (  1.823164,  1.823164,  1.823164 )     1.91658869
  WF centre and spread    6  (  1.823164,  0.891836,  0.891836 )     1.91658883
  WF centre and spread    7  (  0.891836,  1.823164,  0.891836 )     1.91658876
  WF centre and spread    8  (  0.891836,  0.891836,  1.823164 )     1.91658868
  Sum of centres and spreads (  5.430000,  5.430000,  5.430000 )    17.44434291
 
     36    -0.337E-09     0.0000137344       17.4443429118       0.36  <-- CONV
        O_D=      0.0872439 O_OD=      3.6476717 O_TOT=     17.4443429 <-- SPRD
 Delta: O_D=  0.3749844E-07 O_OD= -0.3783521E-07 O_TOT= -0.3367688E-09 <-- DLTA
 ------------------------------------------------------------------------------
 Cycle:     37
  WF centre and spread    1  (  0.174248,  0.174249,  0.174249 )     2.44449771
  WF centre and spread    2  (  0.174249, -0.174249, -0.174248 )     2.44449757
  WF centre and spread    3  ( -0.174248,  0.174249, -0.174249 )     2.44449762
  WF centre and spread    4  ( -0.174249, -0.174248,  0.174249 )     2.44449769
  WF centre and spread    5  (  1.823164,  1.823164,  1.823164 )     1.91658803
  WF centre and spread    6  (  1.823164,  0.891836,  0.891836 )     1.91658817
  WF centre and spread    7  (  0.891836,  1.823164,  0.891836 )     1.91658810
  WF centre and spread    8  (  0.891836,  0.891836,  1.823164 )     1.91658802
  Sum of centres and spreads (  5.430000,  5.430000,  5.430000 )    17.44434291
 
     37    -0.196E-09     0.0000123300       17.4443429116       0.36  <-- CONV
        O_D=      0.0872439 O_OD=      3.6476718 O_TOT=     17.4443429 <-- SPRD
 Delta: O_D= -0.3826908E-07 O_OD=  0.3807353E-07 O_TOT= -0.1955485E-09 <-- DLTA
 ------------------------------------------------------------------------------
 Cycle:     38
  WF centre and spread    1  (  0.174248,  0.174249,  0.174249 )     2.44449895
  WF centre and spread    2  (  0.174249, -0.174249, -0.174248 )     2.44449881
  WF centre and spread    3  ( -0.174248,  0.174249, -0.174249 )     2.44449886
  WF centre and spread    4  ( -0.174249, -0.174248,  0.174249 )     2.44449893
  WF centre and spread    5  (  1.823164,  1.823164,  1.823164 )     1.91658679
  WF centre and spread    6  (  1.823164,  0.891836,  0.891836 )     1.91658693
  WF centre and spread    7  (  0.891836,  1.823164,  0.891836 )     1.91658686
  WF centre and spread    8  (  0.891836,  0.891836,  1.823164 )     1.91658678
  Sum of centres and spreads (  5.430000,  5.430000,  5.430000 )    17.44434291
 
     38    -0.180E-09     0.0000095517       17.4443429114       0.36  <-- CONV
        O_D=      0.0872438 O_OD=      3.6476718 O_TOT=     17.4443429 <-- SPRD
 Delta: O_D= -0.3871455E-07 O_OD=  0.3853459E-07 O_TOT= -0.1799556E-09 <-- DLTA
 ------------------------------------------------------------------------------
 Cycle:     39
  WF centre and spread    1  (  0.174248,  0.174249,  0.174249 )     2.44449896
  WF centre and spread    2  (  0.174249, -0.174249, -0.174248 )     2.44449881
  WF centre and spread    3  ( -0.174248,  0.174249, -0.174249 )     2.44449886
  WF centre and spread    4  ( -0.174249, -0.174248,  0.174249 )     2.44449893
  WF centre and spread    5  (  1.823164,  1.823164,  1.823164 )     1.91658679
  WF centre and spread    6  (  1.823164,  0.891836,  0.891836 )     1.91658692
  WF centre and spread    7  (  0.891836,  1.823164,  0.891836 )     1.91658686
  WF centre and spread    8  (  0.891836,  0.891836,  1.823164 )     1.91658678
  Sum of centres and spreads (  5.430000,  5.430000,  5.430000 )    17.44434291
 
     39    -0.113E-11     0.0000070115       17.4443429114       0.37  <-- CONV
        O_D=      0.0872438 O_OD=      3.6476718 O_TOT=     17.4443429 <-- SPRD
 Delta: O_D= -0.5019482E-10 O_OD=  0.4906653E-10 O_TOT= -0.1126210E-11 <-- DLTA
 ------------------------------------------------------------------------------
 Cycle:     40
  WF centre and spread    1  (  0.174248,  0.174249,  0.174249 )     2.44450011
  WF centre and spread    2  (  0.174249, -0.174249, -0.174248 )     2.44449996
  WF centre and spread    3  ( -0.174248,  0.174249, -0.174249 )     2.44450001
  WF centre and spread    4  ( -0.174249, -0.174248,  0.174248 )     2.44450008
  WF centre and spread    5  (  1.823164,  1.823164,  1.823164 )     1.91658564
  WF centre and spread    6  (  1.823164,  0.891836,  0.891836 )     1.91658577
  WF centre and spread    7  (  0.891836,  1.823164,  0.891836 )     1.91658571
  WF centre and spread    8  (  0.891836,  0.891836,  1.823164 )     1.91658563
  Sum of centres and spreads (  5.430000,  5.430000,  5.430000 )    17.44434291
 
     40    -0.801E-10     0.0000069691       17.4443429113       0.37  <-- CONV
        O_D=      0.0872438 O_OD=      3.6476718 O_TOT=     17.4443429 <-- SPRD
 Delta: O_D=  0.2001723E-08 O_OD= -0.2081858E-08 O_TOT= -0.8013856E-10 <-- DLTA
 ------------------------------------------------------------------------------
 Cycle:     41
  WF centre and spread    1  (  0.174248,  0.174249,  0.174249 )     2.44450061
  WF centre and spread    2  (  0.174249, -0.174249, -0.174248 )     2.44450046
  WF centre and spread    3  ( -0.174248,  0.174249, -0.174249 )     2.44450051
  WF centre and spread    4  ( -0.174249, -0.174248,  0.174248 )     2.44450059
  WF centre and spread    5  (  1.823164,  1.823164,  1.823164 )     1.91658513
  WF centre and spread    6  (  1.823164,  0.891836,  0.891836 )     1.91658527
  WF centre and spread    7  (  0.891836,  1.823164,  0.891836 )     1.91658520
  WF centre and spread    8  (  0.891836,  0.891836,  1.823164 )     1.91658512
  Sum of centres and spreads (  5.430000,  5.430000,  5.430000 )    17.44434291
 
     41    -0.820E-11     0.0000090417       17.4443429113       0.37  <-- CONV
        O_D=      0.0872438 O_OD=      3.6476718 O_TOT=     17.4443429 <-- SPRD
 Delta: O_D=  0.5249288E-09 O_OD= -0.5331349E-09 O_TOT= -0.8203216E-11 <-- DLTA
 ------------------------------------------------------------------------------
 Cycle:     42
  WF centre and spread    1  (  0.174248,  0.174248,  0.174249 )     2.44450225
  WF centre and spread    2  (  0.174249, -0.174249, -0.174248 )     2.44450210
  WF centre and spread    3  ( -0.174248,  0.174249, -0.174249 )     2.44450215
  WF centre and spread    4  ( -0.174249, -0.174248,  0.174248 )     2.44450223
  WF centre and spread    5  (  1.823164,  1.823164,  1.823164 )     1.91658350
  WF centre and spread    6  (  1.823164,  0.891836,  0.891836 )     1.91658363
  WF centre and spread    7  (  0.891836,  1.823164,  0.891836 )     1.91658357
  WF centre and spread    8  (  0.891836,  0.891836,  1.823164 )     1.91658349
  Sum of centres and spreads (  5.430000,  5.430000,  5.430000 )    17.44434291
 
     42    -0.474E-10     0.0000104874       17.4443429112       0.37  <-- CONV
        O_D=      0.0872438 O_OD=      3.6476718 O_TOT=     17.4443429 <-- SPRD
 Delta: O_D= -0.1105074E-10 O_OD= -0.3631362E-10 O_TOT= -0.4736478E-10 <-- DLTA
 ------------------------------------------------------------------------------
 Cycle:     43
  WF centre and spread    1  (  0.174248,  0.174248,  0.174249 )     2.44450242
  WF centre and spread    2  (  0.174249, -0.174249, -0.174248 )     2.44450226
  WF centre and spread    3  ( -0.174248,  0.174249, -0.174249 )     2.44450231
  WF centre and spread    4  ( -0.174249, -0.174248,  0.174248 )     2.44450239
  WF centre and spread    5  (  1.823164,  1.823164,  1.823164 )     1.91658334
  WF centre and spread    6  (  1.823164,  0.891836,  0.891836 )     1.91658347
  WF centre and spread    7  (  0.891836,  1.823164,  0.891836 )     1.91658340
  WF centre and spread    8  (  0.891836,  0.891836,  1.823164 )     1.91658332
  Sum of centres and spreads (  5.430000,  5.430000,  5.430000 )    17.44434291
 
     43    -0.880E-10     0.0000095514       17.4443429112       0.37  <-- CONV
        O_D=      0.0872438 O_OD=      3.6476718 O_TOT=     17.4443429 <-- SPRD
 Delta: O_D= -0.4556354E-08 O_OD=  0.4468384E-08 O_TOT= -0.8796874E-10 <-- DLTA
 ------------------------------------------------------------------------------
 Cycle:     44
  WF centre and spread    1  (  0.174248,  0.174248,  0.174249 )     2.44450242
  WF centre and spread    2  (  0.174249, -0.174249, -0.174248 )     2.44450226
  WF centre and spread    3  ( -0.174248,  0.174249, -0.174249 )     2.44450231
  WF centre and spread    4  ( -0.174249, -0.174248,  0.174248 )     2.44450239
  WF centre and spread    5  (  1.823164,  1.823164,  1.823164 )     1.91658333
  WF centre and spread    6  (  1.823164,  0.891836,  0.891836 )     1.91658347
  WF centre and spread    7  (  0.891836,  1.823164,  0.891836 )     1.91658340
  WF centre and spread    8  (  0.891836,  0.891836,  1.823164 )     1.91658332
  Sum of centres and spreads (  5.430000,  5.430000,  5.430000 )    17.44434291
 
     44    -0.277E-12     0.0000036770       17.4443429112       0.37  <-- CONV
        O_D=      0.0872438 O_OD=      3.6476718 O_TOT=     17.4443429 <-- SPRD
 Delta: O_D=  0.5689305E-10 O_OD= -0.5716894E-10 O_TOT= -0.2771117E-12 <-- DLTA
 ------------------------------------------------------------------------------
 Cycle:     45
  WF centre and spread    1  (  0.174248,  0.174248,  0.174249 )     2.44450242
  WF centre and spread    2  (  0.174249, -0.174249, -0.174248 )     2.44450226
  WF centre and spread    3  ( -0.174248,  0.174249, -0.174249 )     2.44450232
  WF centre and spread    4  ( -0.174249, -0.174248,  0.174248 )     2.44450240
  WF centre and spread    5  (  1.823164,  1.823164,  1.823164 )     1.91658333
  WF centre and spread    6  (  1.823164,  0.891836,  0.891836 )     1.91658346
  WF centre and spread    7  (  0.891836,  1.823164,  0.891836 )     1.91658340
  WF centre and spread    8  (  0.891836,  0.891836,  1.823164 )     1.91658332
  Sum of centres and spreads (  5.430000,  5.430000,  5.430000 )    17.44434291
 
     45    -0.515E-12     0.0000036506       17.4443429112       0.37  <-- CONV
        O_D=      0.0872438 O_OD=      3.6476718 O_TOT=     17.4443429 <-- SPRD
 Delta: O_D=  0.1204029E-09 O_OD= -0.1209179E-09 O_TOT= -0.5151435E-12 <-- DLTA
 ------------------------------------------------------------------------------
 Cycle:     46
  WF centre and spread    1  (  0.174248,  0.174248,  0.174249 )     2.44450265
  WF centre and spread    2  (  0.174249, -0.174249, -0.174248 )     2.44450249
  WF centre and spread    3  ( -0.174248,  0.174249, -0.174249 )     2.44450254
  WF centre and spread    4  ( -0.174249, -0.174248,  0.174248 )     2.44450262
  WF centre and spread    5  (  1.823164,  1.823164,  1.823164 )     1.91658311
  WF centre and spread    6  (  1.823164,  0.891836,  0.891836 )     1.91658324
  WF centre and spread    7  (  0.891836,  1.823164,  0.891836 )     1.91658318
  WF centre and spread    8  (  0.891836,  0.891836,  1.823164 )     1.91658309
  Sum of centres and spreads (  5.430000,  5.430000,  5.430000 )    17.44434291
 
     46    -0.172E-10     0.0000035971       17.4443429111       0.38  <-- CONV
        O_D=      0.0872438 O_OD=      3.6476718 O_TOT=     17.4443429 <-- SPRD
 Delta: O_D=  0.7794074E-08 O_OD= -0.7811265E-08 O_TOT= -0.1719158E-10 <-- DLTA
 ------------------------------------------------------------------------------
 Cycle:     47
  WF centre and spread    1  (  0.174248,  0.174248,  0.174249 )     2.44450280
  WF centre and spread    2  (  0.174249, -0.174249, -0.174248 )     2.44450263
  WF centre and spread    3  ( -0.174248,  0.174249, -0.174249 )     2.44450269
  WF centre and spread    4  ( -0.174249, -0.174248,  0.174248 )     2.44450277
  WF centre and spread    5  (  1.823164,  1.823164,  1.823164 )     1.91658296
  WF centre and spread    6  (  1.823164,  0.891836,  0.891836 )     1.91658309
  WF centre and spread    7  (  0.891836,  1.823164,  0.891836 )     1.91658303
  WF centre and spread    8  (  0.891836,  0.891836,  1.823164 )     1.91658295
  Sum of centres and spreads (  5.430000,  5.430000,  5.430000 )    17.44434291
 
     47    -0.436E-11     0.0000030318       17.4443429111       0.38  <-- CONV
        O_D=      0.0872439 O_OD=      3.6476718 O_TOT=     17.4443429 <-- SPRD
 Delta: O_D=  0.5936034E-08 O_OD= -0.5940389E-08 O_TOT= -0.4355627E-11 <-- DLTA
 ------------------------------------------------------------------------------
 Cycle:     48
  WF centre and spread    1  (  0.174248,  0.174248,  0.174249 )     2.44450281
  WF centre and spread    2  (  0.174249, -0.174249, -0.174248 )     2.44450264
  WF centre and spread    3  ( -0.174248,  0.174249, -0.174249 )     2.44450270
  WF centre and spread    4  ( -0.174249, -0.174248,  0.174248 )     2.44450278
  WF centre and spread    5  (  1.823164,  1.823164,  1.823164 )     1.91658295
  WF centre and spread    6  (  1.823164,  0.891836,  0.891836 )     1.91658308
  WF centre and spread    7  (  0.891836,  1.823164,  0.891836 )     1.91658302
  WF centre and spread    8  (  0.891836,  0.891836,  1.823164 )     1.91658294
  Sum of centres and spreads (  5.430000,  5.430000,  5.430000 )    17.44434291
 
     48    -0.401E-12     0.0000037150       17.4443429111       0.38  <-- CONV
        O_D=      0.0872439 O_OD=      3.6476718 O_TOT=     17.4443429 <-- SPRD
 Delta: O_D=  0.4144898E-09 O_OD= -0.4148912E-09 O_TOT= -0.4014566E-12 <-- DLTA
 ------------------------------------------------------------------------------
 Cycle:     49
  WF centre and spread    1  (  0.174248,  0.174248,  0.174249 )     2.44450285
  WF centre and spread    2  (  0.174249, -0.174249, -0.174248 )     2.44450269
  WF centre and spread    3  ( -0.174248,  0.174249, -0.174249 )     2.44450274
  WF centre and spread    4  ( -0.174249, -0.174248,  0.174248 )     2.44450282
  WF centre and spread    5  (  1.823164,  1.823164,  1.823164 )     1.91658291
  WF centre and spread    6  (  1.823164,  0.891836,  0.891836 )     1.91658304
  WF centre and spread    7  (  0.891836,  1.823164,  0.891836 )     1.91658298
  WF centre and spread    8  (  0.891836,  0.891836,  1.823164 )     1.91658289
  Sum of centres and spreads (  5.430000,  5.430000,  5.430000 )    17.44434291
 
     49    -0.597E-11     0.0000037166       17.4443429111       0.38  <-- CONV
        O_D=      0.0872439 O_OD=      3.6476718 O_TOT=     17.4443429 <-- SPRD
 Delta: O_D=  0.2527986E-08 O_OD= -0.2533957E-08 O_TOT= -0.5968559E-11 <-- DLTA
 ------------------------------------------------------------------------------
 Cycle:     50
  WF centre and spread    1  (  0.174248,  0.174248,  0.174249 )     2.44450285
  WF centre and spread    2  (  0.174249, -0.174249, -0.174248 )     2.44450269
  WF centre and spread    3  ( -0.174248,  0.174249, -0.174249 )     2.44450274
  WF centre and spread    4  ( -0.174249, -0.174248,  0.174248 )     2.44450282
  WF centre and spread    5  (  1.823164,  1.823164,  1.823164 )     1.91658290
  WF centre and spread    6  (  1.823164,  0.891836,  0.891836 )     1.91658304
  WF centre and spread    7  (  0.891836,  1.823164,  0.891836 )     1.91658297
  WF centre and spread    8  (  0.891836,  0.891836,  1.823164 )     1.91658289
  Sum of centres and spreads (  5.430000,  5.430000,  5.430000 )    17.44434291
 
     50    -0.213E-12     0.0000026247       17.4443429111       0.38  <-- CONV
[...]
         Spreads (Ang^2)       Omega I      =    13.709427255
        ================       Omega D      =     0.087243904
                               Omega OD     =     3.647671752
    Final Spread (Ang^2)       Omega Total  =    17.444342911
 ------------------------------------------------------------------------------
 Time for wannierise            0.139 (sec)

 Writing checkpoint file wannier90.chk... done

 Time for plotting              0.000 (sec)
 Total Execution Time           3.849 (sec)

 *===========================================================================*
 |                             TIMING INFORMATION                            |
 *===========================================================================*
 |    Tag                                                Ncalls      Time (s)|
 |---------------------------------------------------------------------------|
 |kmesh: get                                        :         1         0.181|
 |overlap: allocate                                 :         1         0.001|
 |overlap: read                                     :         1         3.289|
 |dis: main                                         :         1         0.170|
 |wann: main                                        :         1         0.139|
 |plot: main                                        :         1         0.000|
 *---------------------------------------------------------------------------*
 
 All done: wannier90 exiting
 
             +---------------------------------------------------+
             |                                                   |
             |                   WANNIER90                       |
             |                                                   |
             +---------------------------------------------------+
             |                                                   |
             |        Welcome to the Maximally-Localized         |
             |        Generalized Wannier Functions code         |
             |            http://www.wannier.org                 |
             |                                                   |
             |                                                   |
             |  Wannier90 Developer Group:                       |
             |    Giovanni Pizzi    (EPFL)                       |
             |    Valerio Vitale    (Cambridge)                  |
             |    David Vanderbilt  (Rutgers University)         |
             |    Nicola Marzari    (EPFL)                       |
             |    Ivo Souza         (Universidad del Pais Vasco) |
             |    Arash A. Mostofi  (Imperial College London)    |
             |    Jonathan R. Yates (University of Oxford)       |
             |                                                   |
             |  For the full list of Wannier90 3.x authors,      |
             |  please check the code documentation and the      |
             |  README on the GitHub page of the code            |
             |                                                   |
             |                                                   |
             |  Please cite                                      |
             |                                                   |
             |  [ref] "Wannier90 as a community code:            |
             |        new features and applications",            |
             |        G. Pizzi et al., J. Phys. Cond. Matt. 32,  |
             |        165902 (2020).                             |
             |        http://doi.org/10.1088/1361-648X/ab51ff    |
             |                                                   |
             |  in any publications arising from the use of      |
             |  this code. For the method please cite            |
             |                                                   |
             |  [ref] "Maximally Localized Generalised Wannier   |
             |         Functions for Composite Energy Bands"     |
             |         N. Marzari and D. Vanderbilt              |
             |         Phys. Rev. B 56 12847 (1997)              |
             |                                                   |
             |  [ref] "Maximally Localized Wannier Functions     |
             |         for Entangled Energy Bands"               |
             |         I. Souza, N. Marzari and D. Vanderbilt    |
             |         Phys. Rev. B 65 035109 (2001)             |
             |                                                   |
             |                                                   |
             | Copyright (c) 1996-2020                           |
             |        The Wannier90 Developer Group and          |
             |        individual contributors                    |
             |                                                   |
             |      Release: 3.1.0        5th March    2020      |
             |                                                   |
             | This program is free software; you can            |
             | redistribute it and/or modify it under the terms  |
             | of the GNU General Public License as published by |
             | the Free Software Foundation; either version 2 of |
             | the License, or (at your option) any later version|
             |                                                   |
             | This program is distributed in the hope that it   |
             | will be useful, but WITHOUT ANY WARRANTY; without |
             | even the implied warranty of MERCHANTABILITY or   |
             | FITNESS FOR A PARTICULAR PURPOSE. See the GNU     |
             | General Public License for more details.          |
             |                                                   |
             | You should have received a copy of the GNU General|
             | Public License along with this program; if not,   |
             | write to the Free Software Foundation, Inc.,      |
             | 675 Mass Ave, Cambridge, MA 02139, USA.           |
             |                                                   |
             +---------------------------------------------------+
             |    Execution started on  1Jun2025 at 15:29:45     |
             +---------------------------------------------------+
 
 ******************************************************************************
 * -> Using CODATA 2006 constant values                                       *
 *    (http://physics.nist.gov/cuu/Constants/index.html)                      *
 * -> Using Bohr value from CODATA                                            *
 ******************************************************************************
 

 Running in parallel on  96 CPUs

 
                                    ------
                                    SYSTEM
                                    ------
 
                              Lattice Vectors (Ang)
                    a_1     2.715000   2.715000   0.000000
                    a_2     0.000000   2.715000   2.715000
                    a_3     2.715000   0.000000   2.715000
 
                   Unit Cell Volume:      40.02575  (Ang^3)
 
                        Reciprocal-Space Vectors (Ang^-1)
                    b_1     1.157124   1.157124  -1.157124
                    b_2    -1.157124   1.157124   1.157124
                    b_3     1.157124  -1.157124   1.157124
  
 *----------------------------------------------------------------------------*
 |   Site       Fractional Coordinate          Cartesian Coordinate (Ang)     |
 +----------------------------------------------------------------------------+
 | Si   1   0.00000   0.00000   0.00000   |    0.00000   0.00000   0.00000    |
 | Si   2   0.25000   0.25000   0.25000   |    1.35750   1.35750   1.35750    |
 *----------------------------------------------------------------------------*
                                ------------
                                K-POINT GRID
                                ------------
  
             Grid size =  6 x  6 x  6      Total points =  216
  
  
 *---------------------------------- MAIN ------------------------------------*
 |  Number of Wannier Functions               :                 8             |
 |  Number of Objective Wannier Functions     :                 8             |
 |  Number of input Bloch states              :                48             |
 |  Output verbosity (1=low, 5=high)          :                 1             |
 |  Timing Level (1=low, 5=high)              :                 1             |
 |  Optimisation (0=memory, 3=speed)          :                 3             |
 |  Length Unit                               :               Ang             |
 |  Post-processing setup (write *.nnkp)      :                 F             |
 |  Using Gamma-only branch of algorithms     :                 F             |
 *----------------------------------------------------------------------------*
 *------------------------------- WANNIERISE ---------------------------------*
 |  Total number of iterations                :               100             |
 |  Number of CG steps before reset           :                 5             |
 |  Trial step length for line search         :             2.000             |
 |  Convergence tolerence                     :         0.100E-09             |
 |  Convergence window                        :                -1             |
 |  Iterations between writing output         :                 1             |
 |  Iterations between backing up to disk     :               100             |
 |  Write r^2_nm to file                      :                 F             |
 |  Write xyz WF centres to file              :                 F             |
 |  Write on-site energies <0n|H|0n> to file  :                 F             |
 |  Use guiding centre to control phases      :                 T             |
 |  Use phases for initial projections        :                 F             |
 |  Iterations before starting guiding centres:                 0             |
 |  Iterations between using guiding centres  :                 1             |
 *----------------------------------------------------------------------------*
 *------------------------------- DISENTANGLE --------------------------------*
 |  Using band disentanglement                :                 T             |
 |  Total number of iterations                :               100             |
 |  Mixing ratio                              :             0.500             |
 |  Convergence tolerence                     :         1.000E-10             |
 |  Convergence window                        :                 3             |
 *----------------------------------------------------------------------------*
 *-------------------------------- PLOTTING ----------------------------------*
 |  Plotting interpolated bandstructure       :                 T             |
 |   Number of K-path sections                :                 6             |
 |   Divisions along first K-path section     :                40             |
 |   Output format                            :           gnuplot             |
 |   Output mode                              :               s-k             |
 *----------------------------------------------------------------------------*
 |   K-space path sections:                                                   |
 |    From: G       0.000  0.000  0.000     To: X       0.500  0.000  0.500   |
 |    From: X       0.500  0.000  0.500     To: U       0.625  0.250  0.625   |
 |    From: K       0.375  0.375  0.750     To: G       0.000  0.000  0.000   |
 |    From: G       0.000  0.000  0.000     To: L       0.500  0.500  0.500   |
 |    From: L       0.500  0.500  0.500     To: W       0.500  0.250  0.750   |
 |    From: W       0.500  0.250  0.750     To: X       0.500  0.000  0.500   |
 *----------------------------------------------------------------------------*
 Time to read parameters        0.051 (sec)

 *---------------------------------- K-MESH ----------------------------------*
 +----------------------------------------------------------------------------+
 |                    Distance to Nearest-Neighbour Shells                    |
 |                    ------------------------------------                    |
 |          Shell             Distance (Ang^-1)          Multiplicity         |
 |          -----             -----------------          ------------         |
 |             1                   0.334033                      8            |
 |             2                   0.385708                      6            |
 |             3                   0.545474                     12            |
 |             4                   0.639625                     24            |
 |             5                   0.668066                      8            |
 |             6                   0.771416                      6            |
 |             7                   0.840631                     24            |
 |             8                   0.862470                     24            |
 |             9                   0.944788                     24            |
 |            10                   1.002099                     32            |
 |            11                   1.090947                     12            |
 |            12                   1.140940                     48            |
 |            13                   1.157124                     30            |
 |            14                   1.219716                     24            |
 |            15                   1.264629                     24            |
 |            16                   1.279249                     24            |
 |            17                   1.336132                      8            |
 |            18                   1.377253                     48            |
 |            19                   1.390690                     24            |
 |            20                   1.443188                     48            |
 |            21                   1.481340                     72            |
 |            22                   1.542832                      6            |
 |            23                   1.578579                     24            |
 |            24                   1.590315                     48            |
 |            25                   1.636421                     36            |
 |            26                   1.670165                     56            |
 |            27                   1.681263                     24            |
 |            28                   1.724939                     24            |
 |            29                   1.756984                     72            |
 |            30                   1.767537                     48            |
 |            31                   1.809131                     24            |
 |            32                   1.839710                     48            |
 |            33                   1.889576                     24            |
 |            34                   1.918874                     72            |
 |            35                   1.928541                     30            |
 |            36                   1.966733                     72            |
 +----------------------------------------------------------------------------+
 | The b-vectors are chosen automatically                                     |
 | The following shells are used:   1                                         |
 +----------------------------------------------------------------------------+
 |                        Shell   # Nearest-Neighbours                        |
 |                        -----   --------------------                        |
 |                          1               8                                 |
 +----------------------------------------------------------------------------+
 | Completeness relation is fully satisfied [Eq. (B1), PRB 56, 12847 (1997)]  |
 +----------------------------------------------------------------------------+
 |                  b_k Vectors (Ang^-1) and Weights (Ang^2)                  |
 |                  ----------------------------------------                  |
 |            No.         b_k(x)      b_k(y)      b_k(z)        w_b           |
 |            ---        --------------------------------     --------        |
 |             1         0.192854    0.192854   -0.192854     3.360876        |
 |             2        -0.192854    0.192854    0.192854     3.360876        |
 |             3         0.192854   -0.192854    0.192854     3.360876        |
 |             4        -0.192854   -0.192854   -0.192854     3.360876        |
 |             5        -0.192854   -0.192854    0.192854     3.360876        |
 |             6         0.192854   -0.192854   -0.192854     3.360876        |
 |             7        -0.192854    0.192854   -0.192854     3.360876        |
 |             8         0.192854    0.192854    0.192854     3.360876        |
 +----------------------------------------------------------------------------+
 |                           b_k Directions (Ang^-1)                          |
 |                           -----------------------                          |
 |            No.           x           y           z                         |
 |            ---        --------------------------------                     |
 |             1         0.192854    0.192854   -0.192854                     |
 |             2        -0.192854    0.192854    0.192854                     |
 |             3         0.192854   -0.192854    0.192854                     |
 |             4        -0.192854   -0.192854   -0.192854                     |
 +----------------------------------------------------------------------------+
  
 Time to get kmesh              0.150 (sec)
 *============================================================================*
 |                              MEMORY ESTIMATE                               |
 |         Maximum RAM allocated during each phase of the calculation         |
 *============================================================================*
 |                        Disentanglement           79.09 Mb                  |
 |                            Wannierise:            6.19 Mb                  |
 |                          plot_wannier:            6.19 Mb                  |
 *----------------------------------------------------------------------------*
  
 Reading restart information from file wannier90.chk :
 written on  1Jun2025 at 15:20:17 ... done

 Restarting Wannier90 from plotting routines ...

 *---------------------------------------------------------------------------*
 |                               PLOTTING                                    |
 *---------------------------------------------------------------------------*
 
 
 Calculating interpolated band-structure
 
 Time to calculate interpolated band structure       0.438 (sec)
 
 Time for plotting              0.479 (sec)
 Total Execution Time           0.687 (sec)

 *===========================================================================*
 |                             TIMING INFORMATION                            |
 *===========================================================================*
 |    Tag                                                Ncalls      Time (s)|
 |---------------------------------------------------------------------------|
 |kmesh: get                                        :         1         0.150|
 |plot: main                                        :         1         0.479|
 *---------------------------------------------------------------------------*
 
 All done: wannier90 exiting
