Si G0W0                                 
   5.4299999999999997     
     0.500000    0.500000    0.000000
     0.000000    0.500000    0.500000
     0.500000    0.000000    0.500000
   Si
     2
Direct
   0.000000  0.000000  0.000000
   0.250000  0.250000  0.250000

   40   40   40
 -.75182509769E+00 0.83948236248E-02 0.21292155789E+01 0.51813385531E+01 0.85929027881E+01
 0.11798235202E+02 0.14353972845E+02 0.15996602420E+02 0.16648359728E+02 0.16393167747E+02
 0.15437878367E+02 0.14062338751E+02 0.12559689085E+02 0.11139259159E+02 0.98839026398E+01
 0.88302111732E+01 0.79861696589E+01 0.73443540981E+01 0.68935347035E+01 0.66254747332E+01
 0.65364138153E+01 0.66254733817E+01 0.68935345999E+01 0.73443564568E+01 0.79861729704E+01
 0.88302135678E+01 0.98839029144E+01 0.11139256562E+02 0.12559685526E+02 0.14062338480E+02
 0.15437878412E+02 0.16393151438E+02 0.16648314656E+02 0.15996551487E+02 0.14353971143E+02
 0.11798314874E+02 0.85930241041E+01 0.51814189913E+01 0.21292166738E+01 0.83619786614E-02
 0.83958134886E-02 0.15688793858E+01 0.43545328026E+01 0.78049084668E+01 0.11299876156E+02
 0.14308664008E+02 0.16476074065E+02 0.17643155745E+02 0.17827480322E+02 0.17187109032E+02
 0.15976224992E+02 0.14491105585E+02 0.12998766816E+02 0.11631567284E+02 0.10445288690E+02
 0.94633297922E+01 0.86879734204E+01 0.81127091475E+01 0.77311690021E+01 0.75405547141E+01
 0.75405482875E+01 0.77311595723E+01 0.81127106622E+01 0.86879828299E+01 0.94633341585E+01
 0.10445286412E+02 0.11631567901E+02 0.12998772695E+02 0.14491107782E+02 0.15976216730E+02
 0.17187090661E+02 0.17827453660E+02 0.17643131741E+02 0.16476085155E+02 0.14308738544E+02
 0.11299982718E+02 0.78049532318E+01 0.43544520570E+01 0.15687314654E+01 0.83215253960E-02
 0.21292204777E+01 0.43545358245E+01 0.75254764826E+01 0.11023158373E+02 0.14259539515E+02
 0.16797192882E+02 0.18394695241E+02 0.18997475260E+02 0.18704943210E+02 0.17730007604E+02
 0.16351045216E+02 0.14853675696E+02 0.13426694495E+02 0.12145587130E+02 0.11048851021E+02
 0.10150532755E+02 0.94517315921E+01 0.89507639833E+01 0.86483133253E+01 0.85470120001E+01
 0.86483068825E+01 0.89507563991E+01 0.94517285548E+01 0.10150535729E+02 0.11048857066E+02
 0.12145592328E+02 0.13426697393E+02 0.14853677725E+02 0.16351047358E+02 0.17730006856E+02
 0.18704935449E+02 0.18997464987E+02 0.18394699432E+02 0.16797225245E+02 0.14259584994E+02
 0.11023171134E+02 0.75254188438E+01 0.43544257114E+01 0.21291312019E+01 0.13272838521E+01
 0.51813467192E+01 0.78049133368E+01 0.11023159942E+02 0.14240074585E+02 0.16960599682E+02
 0.18867343637E+02 0.19831365613E+02 0.19887122969E+02 0.19195590456E+02 0.18001257259E+02
 0.16580592399E+02 0.15160640472E+02 0.13840083178E+02 0.12669461428E+02 0.11674376981E+02
 0.10865105645E+02 0.10246987207E+02 0.98269237618E+01 0.96136796512E+01 0.96136765689E+01
 0.98269136574E+01 0.10246973065E+02 0.10865098068E+02 0.11674382817E+02 0.12669472608E+02
 0.13840086626E+02 0.15160636856E+02 0.16580594306E+02 0.18001268732E+02 0.19195600354E+02
 0.19887122455E+02 0.19831360475E+02 0.18867341468E+02 0.16960595290E+02 0.14240060641E+02
 0.11023145568E+02 0.78049158830E+01 0.51813648385E+01 0.37028244101E+01 0.37028136054E+01
 0.85929109271E+01 0.11299880250E+02 0.14259540686E+02 0.16960599746E+02 0.19029234454E+02
 0.20266913749E+02 0.20640807112E+02 0.20253406299E+02 0.19304052775E+02 0.18042621980E+02
 0.16705778762E+02 0.15415027564E+02 0.14228114190E+02 0.13179474694E+02 0.12287987300E+02
 0.11566908709E+02 0.11031322555E+02 0.10699131330E+02 0.10586208094E+02 0.10699114268E+02
 0.11031300066E+02 0.11566894930E+02 0.12287987425E+02 0.13179481712E+02 0.14228117903E+02
 0.15415026145E+02 0.16705779075E+02 0.18042629129E+02 0.19304063411E+02 0.20253413295E+02
 0.20640806206E+02 0.20266903025E+02 0.19029213653E+02 0.16960577996E+02 0.14259541120E+02
 0.11299923146E+02 0.85929851088E+01 0.66828336474E+01 0.59926314000E+01 0.66827744113E+01
 0.11798240325E+02 0.14308665774E+02 0.16797192973E+02 0.18867343497E+02 0.20266913825E+02
 0.20900054056E+02 0.20808744371E+02 0.20140427003E+02 0.19106798540E+02 0.17930590267E+02
 0.16745621596E+02 0.15611984307E+02 0.14568315896E+02 0.13639133876E+02 0.12843797634E+02
 0.12203544244E+02 0.11748339681E+02 0.11510290568E+02 0.11510276470E+02 0.11748307942E+02
 0.12203516114E+02 0.12843785909E+02 0.13639135593E+02 0.14568320953E+02 0.15611986606E+02
 0.16745621728E+02 0.17930591928E+02 0.19106804900E+02 0.20140438063E+02 0.20808755104E+02
 0.20900056639E+02 0.20266904870E+02 0.18867329103E+02 0.16797184320E+02 0.14308669068E+02
 0.11798252109E+02 0.97428416512E+01 0.85820624207E+01 0.85820577489E+01 0.97428299770E+01
 0.14353974379E+02 0.16476073993E+02 0.18394694974E+02 0.19831365834E+02 0.20640807666E+02
 0.20808744775E+02 0.20428901153E+02 0.19667875478E+02 0.18719192186E+02 0.17712830988E+02
 0.16705779014E+02 0.15735363016E+02 0.14826716920E+02 0.13997534999E+02 0.13273643285E+02
 0.12698898151E+02 0.12325274559E+02 0.12195252491E+02 0.12325250638E+02 0.12698860423E+02
 0.13273609233E+02 0.13997519768E+02 0.14826721243E+02 0.15735372745E+02 0.16705780500E+02
 0.17712826010E+02 0.18719193959E+02 0.19667890616E+02 0.20428921264E+02 0.20808758538E+02
 0.20640815619E+02 0.19831375343E+02 0.18394700636E+02 0.16476052462E+02 0.14353908125E+02
 0.12406100149E+02 0.11030297764E+02 0.10533154976E+02 0.11030367093E+02 0.12406193446E+02
 0.15996601983E+02 0.17643155418E+02 0.18997475651E+02 0.19887123976E+02 0.20253407396E+02
 0.20140427719E+02 0.19667875714E+02 0.18991590583E+02 0.18222505623E+02 0.17408598015E+02
 0.16580592929E+02 0.15757195374E+02 0.14947419103E+02 0.14177911144E+02 0.13502556021E+02
 0.12992733308E+02 0.12716827516E+02 0.12716821919E+02 0.12992713085E+02 0.13502520780E+02
 0.14177875552E+02 0.14947402658E+02 0.15757199979E+02 0.16580600639E+02 0.17408594739E+02
 0.18222498718E+02 0.18991596075E+02 0.19667894466E+02 0.20140445480E+02 0.20253417885E+02
 0.19887138600E+02 0.18997501138E+02 0.17643169005E+02 0.15996564786E+02 0.14329470767E+02
 0.12964293816E+02 0.12193945281E+02 0.12193993417E+02 0.12964402980E+02 0.14329567720E+02
 0.16648359391E+02 0.17827480902E+02 0.18704944528E+02 0.19195591972E+02 0.19304053946E+02
 0.19106799116E+02 0.18719192272E+02 0.18222505527E+02 0.17651112058E+02 0.17025062941E+02
 0.16351046022E+02 0.15624114211E+02 0.14863957708E+02 0.14126882496E+02 0.13498375930E+02
 0.13071973192E+02 0.12920645773E+02 0.13071984746E+02 0.13498376442E+02 0.14126857355E+02
 0.14863920814E+02 0.15624091748E+02 0.16351045629E+02 0.17025068285E+02 0.17651107324E+02
 0.18222495401E+02 0.18719192174E+02 0.19106812122E+02 0.19304067010E+02 0.19195595043E+02
 0.18704944384E+02 0.17827490430E+02 0.16648378155E+02 0.15341419828E+02 0.14142608738E+02
 0.13297235869E+02 0.12992118381E+02 0.13297242896E+02 0.14142609362E+02 0.15341406150E+02
 0.16393168503E+02 0.17187110477E+02 0.17730009194E+02 0.18001258483E+02 0.18042622573E+02
 0.17930590275E+02 0.17712830669E+02 0.17408597664E+02 0.17025062745E+02 0.16555217882E+02
 0.15976225961E+02 0.15292257889E+02 0.14552083398E+02 0.13845720498E+02 0.13285282431E+02
 0.12974055515E+02 0.12974079781E+02 0.13285329361E+02 0.13845741464E+02 0.14552059337E+02
 0.15292214619E+02 0.15976199833E+02 0.16555217117E+02 0.17025067685E+02 0.17408591519E+02
 0.17712819301E+02 0.17930589846E+02 0.18042634550E+02 0.18001263724E+02 0.17729989013E+02
 0.17187072847E+02 0.16393150656E+02 0.15440191704E+02 0.14481270924E+02 0.13699167741E+02
 0.13258946293E+02 0.13258901874E+02 0.13699064711E+02 0.14481175003E+02 0.15440152365E+02
 0.15437879783E+02 0.15976226355E+02 0.16351046103E+02 0.16580592648E+02 0.16705778465E+02
 0.16745620993E+02 0.16705778367E+02 0.16580592412E+02 0.16351045685E+02 0.15976225782E+02
 0.15437879217E+02 0.14767141008E+02 0.14046578362E+02 0.13395413277E+02 0.12939738633E+02
 0.12775857728E+02 0.12939802929E+02 0.13395485073E+02 0.14046601300E+02 0.14767109549E+02
 0.15437832016E+02 0.15976200037E+02 0.16351046402E+02 0.16580601078E+02 0.16705779775E+02
 0.16745617110E+02 0.16705780183E+02 0.16580601823E+02 0.16351047352E+02 0.15976201003E+02
 0.15437832755E+02 0.14767109790E+02 0.14046600818E+02 0.13395483801E+02 0.12939801045E+02
 0.12775855643E+02 0.12939736845E+02 0.13395412162E+02 0.14046578024E+02 0.14767141278E+02
 0.14062339696E+02 0.14491105918E+02 0.14853675394E+02 0.15160639733E+02 0.15415026666E+02
 0.15611983476E+02 0.15735362362E+02 0.15757194883E+02 0.15624113790E+02 0.15292257473E+02
 0.14767140675E+02 0.14112063824E+02 0.13439378458E+02 0.12884942929E+02 0.12571367697E+02
 0.12571409067E+02 0.12885034320E+02 0.13439452095E+02 0.14112075994E+02 0.14767101105E+02
 0.15292208397E+02 0.15624089166E+02 0.15757198758E+02 0.15735376600E+02 0.15611989721E+02
 0.15415023197E+02 0.15160640857E+02 0.14853693353E+02 0.14491132212E+02 0.14062348122E+02
 0.13563147945E+02 0.13023592267E+02 0.12507420065E+02 0.12096864465E+02 0.11868514444E+02
 0.11868524505E+02 0.12096897441E+02 0.12507473926E+02 0.13023647010E+02 0.13563175796E+02
 0.12559688823E+02 0.12998765974E+02 0.13426693381E+02 0.13840082110E+02 0.14228113362E+02
 0.14568315342E+02 0.14826716537E+02 0.14947418709E+02 0.14863957122E+02 0.14552082566E+02
 0.14046577454E+02 0.13439377831E+02 0.12860410465E+02 0.12444517805E+02 0.12293321259E+02
 0.12444589623E+02 0.12860505118E+02 0.13439437589E+02 0.14046577831E+02 0.14552041130E+02
 0.14863910299E+02 0.14947393189E+02 0.14826716190E+02 0.14568326051E+02 0.14228118278E+02
 0.13840077454E+02 0.13426693074E+02 0.12998788096E+02 0.12559733298E+02 0.12112882034E+02
 0.11666501301E+02 0.11243476131E+02 0.10886426597E+02 0.10645251788E+02 0.10559819276E+02
 0.10645310959E+02 0.10886506952E+02 0.11243528900E+02 0.11666501175E+02 0.12112842003E+02
 0.11139257953E+02 0.11631566002E+02 0.12145586118E+02 0.12669460835E+02 0.13179474466E+02
 0.13639133828E+02 0.13997534887E+02 0.14177910709E+02 0.14126881550E+02 0.13845719057E+02
 0.13395411636E+02 0.12884941559E+02 0.12444517091E+02 0.12190182769E+02 0.12190214352E+02
 0.12444593852E+02 0.12885021906E+02 0.13395457484E+02 0.13845717014E+02 0.14126845086E+02
 0.14177866707E+02 0.13997506840E+02 0.13639130401E+02 0.13179486190E+02 0.12669467049E+02
 0.12145572241E+02 0.11631540398E+02 0.11139249396E+02 0.10673529608E+02 0.10239040114E+02
 0.98465719993E+01 0.95157760541E+01 0.92723807304E+01 0.91423963518E+01 0.91424126971E+01
 0.92724078418E+01 0.95157734865E+01 0.98465270854E+01 0.10238982271E+02 0.10673499024E+02
 0.98839014679E+01 0.10445287963E+02 0.11048850834E+02 0.11674377198E+02 0.12287987670E+02
 0.12843797897E+02 0.13273643188E+02 0.13502555317E+02 0.13498374480E+02 0.13285280358E+02
 0.12939736369E+02 0.12571365798E+02 0.12293320096E+02 0.12190213921E+02 0.12293356813E+02
 0.12571428033E+02 0.12939800361E+02 0.13285318508E+02 0.13498373432E+02 0.13502525392E+02
 0.13273608501E+02 0.12843778553E+02 0.12287989704E+02 0.11674391515E+02 0.11048857043E+02
 0.10445266818E+02 0.98838548073E+01 0.93735856549E+01 0.89174449681E+01 0.85184924006E+01
 0.81843252708E+01 0.79280903751E+01 0.77655636720E+01 0.77097105060E+01 0.77655439646E+01
 0.79280442305E+01 0.81842628341E+01 0.85184475283E+01 0.89174467082E+01 0.93736276511E+01
 0.88302108832E+01 0.94633300791E+01 0.10150533401E+02 0.10865106352E+02 0.11566909240E+02
 0.12203544433E+02 0.12698897816E+02 0.12992732245E+02 0.13071971327E+02 0.12974053087E+02
 0.12775855267E+02 0.12571407132E+02 0.12444588489E+02 0.12444593417E+02 0.12571427974E+02
 0.12775897070E+02 0.12974101923E+02 0.13072001850E+02 0.12992732464E+02 0.12698877898E+02
 0.12203522017E+02 0.11566895817E+02 0.10865108489E+02 0.10150553620E+02 0.94633571925E+01
 0.88302181416E+01 0.82645604277E+01 0.77702857301E+01 0.73471968231E+01 0.69959812566E+01
 0.67210130721E+01 0.65301400105E+01 0.64319131537E+01 0.64318934008E+01 0.65300946762E+01
 0.67209764599E+01 0.69959855672E+01 0.73472451336E+01 0.77703460537E+01 0.82645931228E+01
 0.79861703234E+01 0.86879743635E+01 0.94517324697E+01 0.10246987800E+02 0.11031322812E+02
 0.11748339584E+02 0.12325273983E+02 0.12716826281E+02 0.12920643864E+02 0.12974077517E+02
 0.12939800858E+02 0.12885032897E+02 0.12860504459E+02 0.12885021808E+02 0.12939800518E+02
 0.12974102093E+02 0.12920680589E+02 0.12716850196E+02 0.12325274089E+02 0.11748323646E+02
 0.11031302909E+02 0.10246972608E+02 0.94517325796E+01 0.86880009376E+01 0.79862187943E+01
 0.73631467105E+01 0.68241553017E+01 0.63678713603E+01 0.59911691159E+01 0.56928006769E+01
 0.54747147903E+01 0.53410858105E+01 0.52959786566E+01 0.53410720973E+01 0.54747147978E+01
 0.56928371939E+01 0.59912306530E+01 0.63679179823E+01 0.68241553093E+01 0.73631055259E+01
 0.73443551030E+01 0.81127099906E+01 0.89507644501E+01 0.98269238772E+01 0.10699131248E+02
 0.11510290344E+02 0.12195251981E+02 0.12716820929E+02 0.13071983304E+02 0.13285327814E+02
 0.13395483889E+02 0.13439451553E+02 0.13439437645E+02 0.13395457897E+02 0.13285319049E+02
 0.13072002364E+02 0.12716850536E+02 0.12195268764E+02 0.11510288255E+02 0.10699119573E+02
 0.98269089544E+01 0.89507443945E+01 0.81126891774E+01 0.73443527870E+01 0.66641560324E+01
 0.60784059261E+01 0.55851371531E+01 0.51788710824E+01 0.48545846465E+01 0.46098576670E+01
 0.44450201268E+01 0.43618586149E+01 0.43618670313E+01 0.44450470880E+01 0.46098983414E+01
 0.48546160607E+01 0.51788653051E+01 0.55850905784E+01 0.60783480415E+01 0.66641229645E+01
 0.68935353522E+01 0.77311692336E+01 0.86483131931E+01 0.96136794230E+01 0.10586208016E+02
 0.11510276542E+02 0.12325250620E+02 0.12992712761E+02 0.13498375869E+02 0.13845740965E+02
 0.14046601207E+02 0.14112076406E+02 0.14046578612E+02 0.13845717971E+02 0.13498374443E+02
 0.12992733439E+02 0.12325274875E+02 0.11510288672E+02 0.10586209561E+02 0.96136788375E+01
 0.86483067498E+01 0.77311427456E+01 0.68934883699E+01 0.61540294704E+01 0.55191798203E+01
 0.49862594376E+01 0.45479441469E+01 0.41963320980E+01 0.39255359850E+01 0.37325083756E+01
 0.36164776774E+01 0.35777290955E+01 0.36164974557E+01 0.37325312797E+01 0.39255361976E+01
 0.41962940123E+01 0.45478820282E+01 0.49862125534E+01 0.55191793459E+01 0.61540697639E+01
 0.66254747519E+01 0.75405543829E+01 0.85470116100E+01 0.96136764924E+01 0.10699114679E+02
 0.11748308679E+02 0.12698861144E+02 0.13502521275E+02 0.14126857719E+02 0.14552059848E+02
 0.14767110398E+02 0.14767102269E+02 0.14552042467E+02 0.14126846499E+02 0.13502526841E+02
 0.12698879290E+02 0.11748324781E+02 0.10699120262E+02 0.96136790757E+01 0.85470233296E+01
 0.75405713632E+01 0.66254747995E+01 0.58202074625E+01 0.51307914505E+01 0.45536164294E+01
 0.40796454892E+01 0.36984948310E+01 0.34012811144E+01 0.31818690026E+01 0.30368019040E+01
 0.29645268996E+01 0.29645280287E+01 0.30367977540E+01 0.31818469892E+01 0.34012431581E+01
 0.36984642790E+01 0.40796497656E+01 0.45536598585E+01 0.51308474021E+01 0.58202412940E+01
 0.65364134297E+01 0.75405478641E+01 0.86483068034E+01 0.98269142069E+01 0.11031301208E+02
 0.12203517514E+02 0.13273610521E+02 0.14177876608E+02 0.14863921797E+02 0.15292215755E+02
 0.15437833382E+02 0.15292209915E+02 0.14863911881E+02 0.14177868336E+02 0.13273610154E+02
 0.12203523543E+02 0.11031304064E+02 0.98269095812E+01 0.86483069184E+01 0.75405713263E+01
 0.65364599872E+01 0.56549177911E+01 0.49017574301E+01 0.42725206767E+01 0.37566198666E+01
 0.33414520440E+01 0.30154299088E+01 0.27695222152E+01 0.25975296441E+01 0.24956530863E+01
 0.24618974498E+01 0.24956439016E+01 0.25975093826E+01 0.27695003681E+01 0.30154299090E+01
 0.33414903469E+01 0.37566823474E+01 0.42725675833E+01 0.49017576195E+01 0.56548771843E+01
 0.66254730681E+01 0.77311595604E+01 0.89507569794E+01 0.10246974287E+02 0.11566896525E+02
 0.12843787473E+02 0.13997521051E+02 0.14947403709E+02 0.15624092794E+02 0.15976201032E+02
 0.15976201375E+02 0.15624090556E+02 0.14947394606E+02 0.13997508308E+02 0.12843780010E+02
 0.11566897054E+02 0.10246973388E+02 0.89507446453E+01 0.77311426303E+01 0.66254745914E+01
 0.56549176784E+01 0.48260044175E+01 0.41339359976E+01 0.35669348204E+01 0.31105056496E+01
 0.27506522408E+01 0.24756532207E+01 0.22765955557E+01 0.21472018886E+01 0.20834788598E+01
 0.20834762642E+01 0.21471970567E+01 0.22765976525E+01 0.24756729257E+01 0.27506884106E+01
 0.31105370449E+01 0.35669336652E+01 0.41338953017E+01 0.48259488253E+01 0.56548822407E+01
 0.68935347130E+01 0.81127111968E+01 0.94517295879E+01 0.10865099415E+02 0.12287988722E+02
 0.13639136551E+02 0.14826721854E+02 0.15757200468E+02 0.16351046225E+02 0.16555217871E+02
 0.16351047225E+02 0.15757199585E+02 0.14826717055E+02 0.13639131336E+02 0.12287990603E+02
 0.10865109122E+02 0.94517327743E+01 0.81126889747E+01 0.68934879973E+01 0.58202071573E+01
 0.49017572872E+01 0.41339359672E+01 0.35043254497E+01 0.29969294081E+01 0.25956693408E+01
 0.22863936846E+01 0.20576153167E+01 0.19005249482E+01 0.18088264334E+01 0.17786903297E+01
 0.18088268283E+01 0.19005329576E+01 0.20576352030E+01 0.22864150864E+01 0.25956688457E+01
 0.29968912228E+01 0.35042634755E+01 0.41338894570E+01 0.49017575221E+01 0.58202483554E+01
 0.73443569073E+01 0.86879834929E+01 0.10150536495E+02 0.11674383429E+02 0.13179481927E+02
 0.14568320748E+02 0.15735372345E+02 0.16580600332E+02 0.17025068193E+02 0.17025067722E+02
 0.16580601119E+02 0.15735376640E+02 0.14568326184E+02 0.13179486442E+02 0.11674391747E+02
 0.10150553629E+02 0.86880006472E+01 0.73443523241E+01 0.61540290558E+01 0.51307912214E+01
 0.42725206120E+01 0.35669348154E+01 0.29969293970E+01 0.25445971384E+01 0.21935798794E+01
 0.19300084369E+01 0.17426368489E+01 0.16227819266E+01 0.15644151502E+01 0.15644157872E+01
 0.16227852358E+01 0.17426424811E+01 0.19300079938E+01 0.21935614843E+01 0.25445608802E+01
 0.29968962954E+01 0.35669333761E+01 0.42725596168E+01 0.51308477419E+01 0.61540677735E+01
 0.79861732048E+01 0.94633342276E+01 0.11048856834E+02 0.12669471935E+02 0.14228116796E+02
 0.15611985290E+02 0.16705779295E+02 0.17408593827E+02 0.17651106638E+02 0.17408590869E+02
 0.16705779070E+02 0.15611989059E+02 0.14228117807E+02 0.12669466775E+02 0.11048856810E+02
 0.94633568417E+01 0.79862183281E+01 0.66641556044E+01 0.55191795786E+01 0.45536163834E+01
 0.37566199013E+01 0.31105056486E+01 0.25956692840E+01 0.21935798267E+01 0.18880659031E+01
 0.16655680371E+01 0.15150908580E+01 0.14283233832E+01 0.14000047992E+01 0.14283244875E+01
 0.15150908669E+01 0.16655605674E+01 0.18880464506E+01 0.21935581215E+01 0.25956692621E+01
 0.31105436399E+01 0.37566815634E+01 0.45536623309E+01 0.55191795331E+01 0.66641159281E+01
 0.88302130118E+01 0.10445285473E+02 0.12145590976E+02 0.13840084897E+02 0.15415024235E+02
 0.16745619949E+02 0.17712824591E+02 0.18222497630E+02 0.18222494406E+02 0.17712818199E+02
 0.16745615937E+02 0.15415022174E+02 0.13840076749E+02 0.12145571810E+02 0.10445266475E+02
 0.88302177653E+01 0.73631463495E+01 0.60784057148E+01 0.49862594313E+01 0.40796455975E+01
 0.33414521164E+01 0.27506521994E+01 0.22863935712E+01 0.19300083440E+01 0.16655680079E+01
 0.14798388789E+01 0.13623035468E+01 0.13054939442E+01 0.13054938834E+01 0.13623027007E+01
 0.14798354459E+01 0.16655621883E+01 0.19300077757E+01 0.22864107003E+01 0.27506888446E+01
 0.33414875564E+01 0.40796490143E+01 0.49862199246E+01 0.60783467300E+01 0.73631054524E+01
 0.98839015872E+01 0.11631566308E+02 0.13426695582E+02 0.15160634936E+02 0.16705777275E+02
 0.17930590485E+02 0.18719192905E+02 0.18991595177E+02 0.18719191130E+02 0.17930588575E+02
 0.16705778908E+02 0.15160639889E+02 0.13426692536E+02 0.11631540145E+02 0.98838546117E+01
 0.82645601994E+01 0.68241551245E+01 0.55851371390E+01 0.45479442868E+01 0.36984949932E+01
 0.30154299633E+01 0.24756531492E+01 0.20576152050E+01 0.17426367883E+01 0.15150908640E+01
 0.13623035700E+01 0.12746901063E+01 0.12461818981E+01 0.12746896714E+01 0.13623020225E+01
 0.15150906123E+01 0.17426445960E+01 0.20576350026E+01 0.24756749642E+01 0.30154304922E+01
 0.36984577740E+01 0.45478822609E+01 0.55850890567E+01 0.68241527051E+01 0.82645991635E+01
 0.11139255226E+02 0.12998771370E+02 0.14853676389E+02 0.16580593034E+02 0.18042628108E+02
 0.19106804235E+02 0.19667890146E+02 0.19667893838E+02 0.19106811110E+02 0.18042633292E+02
 0.16580600723E+02 0.14853692734E+02 0.12998787944E+02 0.11139249432E+02 0.93735856211E+01
 0.77702855913E+01 0.63678712553E+01 0.51788711279E+01 0.41963322632E+01 0.34012812699E+01
 0.27695222689E+01 0.22765955270E+01 0.19005249223E+01 0.16227819571E+01 0.14283234482E+01
 0.13054939889E+01 0.12461819042E+01 0.12461823248E+01 0.13054943591E+01 0.14283236824E+01
 0.16227850353E+01 0.19005317030E+01 0.22765974441E+01 0.27695055314E+01 0.34012440701E+01
 0.41962959852E+01 0.51788667690E+01 0.63679097454E+01 0.77703438523E+01 0.93736264891E+01
 0.12559685102E+02 0.14491107438E+02 0.16351046943E+02 0.18001268324E+02 0.19304063200E+02
 0.20140438050E+02 0.20428921143E+02 0.20140444884E+02 0.19304065897E+02 0.18001262491E+02
 0.16351046523E+02 0.14491132013E+02 0.12559733511E+02 0.10673529819E+02 0.89174449312E+01
 0.73471966027E+01 0.59911689348E+01 0.48545846474E+01 0.39255361339E+01 0.31818691753E+01
 0.25975297619E+01 0.21472019651E+01 0.18088265162E+01 0.15644152466E+01 0.14000048689E+01
 0.13054938935E+01 0.12746896390E+01 0.13054943313E+01 0.14000055965E+01 0.15644165279E+01
 0.18088263957E+01 0.21471939230E+01 0.25975094212E+01 0.31818467557E+01 0.39255361708E+01
 0.48546239502E+01 0.59912330660E+01 0.73472450210E+01 0.89174455599E+01 0.10673488159E+02
 0.14062339201E+02 0.15976217184E+02 0.17730006935E+02 0.19195600321E+02 0.20253413415E+02
 0.20808755268E+02 0.20808758303E+02 0.20253416935E+02 0.19195593594E+02 0.17729987713E+02
 0.15976200414E+02 0.14062348273E+02 0.12112882469E+02 0.10239040319E+02 0.85184922002E+01
 0.69959808500E+01 0.56928003776E+01 0.46098576342E+01 0.37325085545E+01 0.30368021483E+01
 0.24956532968E+01 0.20834790185E+01 0.17786904469E+01 0.15644158528E+01 0.14283244820E+01
 0.13623026354E+01 0.13623019460E+01 0.14283236387E+01 0.15644165192E+01 0.17786910954E+01
 0.20834752500E+01 0.24956446976E+01 0.30367987148E+01 0.37325250116E+01 0.46098959001E+01
 0.56928388945E+01 0.69959882738E+01 0.85184563950E+01 0.10238982325E+02 0.12112838732E+02
 0.15437879437E+02 0.17187090862E+02 0.18704935121E+02 0.19887122202E+02 0.20640806291E+02
 0.20900056677E+02 0.20640814957E+02 0.19887137029E+02 0.18704942453E+02 0.17187071453E+02
 0.15437832411E+02 0.13563148410E+02 0.11666501875E+02 0.98465721214E+01 0.81843248836E+01
 0.67210125211E+01 0.54747144556E+01 0.44450201479E+01 0.36164779446E+01 0.29645272206E+01
 0.24618976967E+01 0.20834764025E+01 0.18088268685E+01 0.16227851942E+01 0.15150907700E+01
 0.14798353406E+01 0.15150905449E+01 0.16227850164E+01 0.18088263975E+01 0.20834752474E+01
 0.24618983074E+01 0.29645357985E+01 0.36164976781E+01 0.44450406477E+01 0.54747126487E+01
 0.67209731084E+01 0.81842628211E+01 0.98465277999E+01 0.11666506189E+02 0.13563193070E+02
 0.16393151371E+02 0.17827452587E+02 0.18997463880E+02 0.19831360164E+02 0.20266903406E+02
 0.20266904973E+02 0.19831374252E+02 0.18997498897E+02 0.17827488063E+02 0.16393149316E+02
 0.14767109848E+02 0.13023593140E+02 0.11243476884E+02 0.95157761377E+01 0.79280898916E+01
 0.65301394415E+01 0.53410855623E+01 0.43618587648E+01 0.35777294551E+01 0.29645283619E+01
 0.24956440808E+01 0.21471970774E+01 0.19005328743E+01 0.17426423562E+01 0.16655604567E+01
 0.16655621303E+01 0.17426445902E+01 0.19005317105E+01 0.21471939073E+01 0.24956446665E+01
 0.29645357867E+01 0.35777393952E+01 0.43618605197E+01 0.53410678113E+01 0.65301007358E+01
 0.79280487148E+01 0.95157653608E+01 0.11243516146E+02 0.13023662943E+02 0.14767162075E+02
 0.16648312716E+02 0.17643129587E+02 0.18394698583E+02 0.18867342420E+02 0.19029215335E+02
 0.18867329713E+02 0.18394699175E+02 0.17643166118E+02 0.16648375542E+02 0.15440190723E+02
 0.14046601539E+02 0.12507421479E+02 0.10886427573E+02 0.92723808175E+01 0.77655631752E+01
 0.64319126722E+01 0.52959785757E+01 0.43618673293E+01 0.36164978608E+01 0.30367980160E+01
 0.25975094247E+01 0.22765975447E+01 0.20576350579E+01 0.19300078948E+01 0.18880464298E+01
 0.19300078108E+01 0.20576350295E+01 0.22765974073E+01 0.25975093339E+01 0.30367986568E+01
 0.36164977075E+01 0.43618605898E+01 0.52959610749E+01 0.64318929934E+01 0.77655634352E+01
 0.92724178457E+01 0.10886490013E+02 0.12507470528E+02 0.14046601462E+02 0.15440141261E+02
 0.15996548555E+02 0.16476083900E+02 0.16797227020E+02 0.16960599343E+02 0.16960581778E+02
 0.16797185370E+02 0.16476050301E+02 0.15996561162E+02 0.15341417200E+02 0.14481270622E+02
 0.13395485353E+02 0.12096866386E+02 0.10645252867E+02 0.91423963631E+01 0.77097100032E+01
 0.64318930633E+01 0.53410722239E+01 0.44450475201E+01 0.37325316751E+01 0.31818471329E+01
 0.27695002803E+01 0.24756727634E+01 0.22864149924E+01 0.21935615078E+01 0.21935582161E+01
 0.22864107638E+01 0.24756749094E+01 0.27695053679E+01 0.31818466093E+01 0.37325250255E+01
 0.44450408352E+01 0.53410680211E+01 0.64318930673E+01 0.77097251660E+01 0.91424370367E+01
 0.10645302913E+02 0.12096882741E+02 0.13395439183E+02 0.14481184550E+02 0.15341348641E+02
 0.14353969767E+02 0.14308741133E+02 0.14259591617E+02 0.14240068522E+02 0.14259546336E+02
 0.14308669356E+02 0.14353904423E+02 0.14329466252E+02 0.14142606345E+02 0.13699168297E+02
 0.12939803308E+02 0.11868516541E+02 0.10559820135E+02 0.91424124655E+01 0.77655434506E+01
 0.65300945496E+01 0.54747151721E+01 0.46098988838E+01 0.39255365331E+01 0.34012431695E+01
 0.30154297404E+01 0.27506882787E+01 0.25956688681E+01 0.25445610221E+01 0.25956693810E+01
 0.27506887962E+01 0.30154302550E+01 0.34012438033E+01 0.39255361126E+01 0.46098961548E+01
 0.54747130544E+01 0.65301009772E+01 0.77655633380E+01 0.91424367818E+01 0.10559826266E+02
 0.11868485425E+02 0.12939739775E+02 0.13699103759E+02 0.14142578326E+02 0.14329491819E+02
 0.11798317757E+02 0.11299990937E+02 0.11023182562E+02 0.11023155449E+02 0.11299927234E+02
 0.11798249638E+02 0.12406094122E+02 0.12964288548E+02 0.13297234015E+02 0.13258947647E+02
 0.12775858163E+02 0.11868526228E+02 0.10645311241E+02 0.92724072890E+01 0.79280438063E+01
 0.67209766628E+01 0.56928378424E+01 0.48546166489E+01 0.41962942105E+01 0.36984641357E+01
 0.33414901293E+01 0.31105369756E+01 0.29968913383E+01 0.29968964570E+01 0.31105436437E+01
 0.33414873004E+01 0.36984573930E+01 0.41962958009E+01 0.48546242024E+01 0.56928394738E+01
 0.67209735742E+01 0.79280486346E+01 0.92724171794E+01 0.10645302097E+02 0.11868484998E+02
 0.12775807239E+02 0.13258923080E+02 0.13297248321E+02 0.12964329274E+02 0.12406150285E+02
 0.85930317985E+01 0.78049657159E+01 0.75254317936E+01 0.78049237100E+01 0.85929848602E+01
 0.97428350242E+01 0.11030289586E+02 0.12193939975E+02 0.12992117392E+02 0.13258903707E+02
 0.12939738986E+02 0.12096898295E+02 0.10886506526E+02 0.95157727756E+01 0.81842627281E+01
 0.69959862008E+01 0.59912315035E+01 0.51788657835E+01 0.45478819684E+01 0.40796494287E+01
 0.37566820890E+01 0.35669336507E+01 0.35042636206E+01 0.35669334519E+01 0.37566813764E+01
 0.40796486008E+01 0.45478819440E+01 0.51788669290E+01 0.59912337477E+01 0.69959890176E+01
 0.81842629560E+01 0.95157645524E+01 0.10886488602E+02 0.12096881548E+02 0.12939739424E+02
 0.13258923370E+02 0.12992138327E+02 0.12193945755E+02 0.11030289699E+02 0.97428556636E+01
 0.51814288058E+01 0.43544644765E+01 0.43544352579E+01 0.51813667816E+01 0.66828275170E+01
 0.85820522361E+01 0.10533146152E+02 0.12193989167E+02 0.13297242916E+02 0.13699066513E+02
 0.13395413376E+02 0.12507473740E+02 0.11243527996E+02 0.98465265856E+01 0.85184479596E+01
 0.73472461450E+01 0.63679188030E+01 0.55850907229E+01 0.49862121338E+01 0.45536593357E+01
 0.42725673260E+01 0.41338953562E+01 0.41338896013E+01 0.42725595689E+01 0.45536619933E+01
 0.49862195367E+01 0.55850890695E+01 0.63679104054E+01 0.73472460066E+01 0.85184569258E+01
 0.98465272249E+01 0.11243514543E+02 0.12507468805E+02 0.13395438469E+02 0.13699104487E+02
 0.13297249757E+02 0.12193946619E+02 0.10533088935E+02 0.85820344919E+01 0.66828673428E+01
 0.21292243294E+01 0.15687393588E+01 0.21291341161E+01 0.37028196468E+01 0.59926209361E+01
 0.85820466367E+01 0.11030359752E+02 0.12964400606E+02 0.14142610142E+02 0.14481176225E+02
 0.14046578087E+02 0.13023646035E+02 0.11666500277E+02 0.10238982338E+02 0.89174476943E+01
 0.77703471729E+01 0.68241557776E+01 0.60783476866E+01 0.55191785976E+01 0.51308468242E+01
 0.49017574824E+01 0.48259490033E+01 0.49017576676E+01 0.51308475855E+01 0.55191791534E+01
 0.60783465703E+01 0.68241532064E+01 0.77703449462E+01 0.89174465353E+01 0.10238982310E+02
 0.11666504896E+02 0.13023661086E+02 0.14046600411E+02 0.14481185339E+02 0.14142580692E+02
 0.12964331608E+02 0.11030290348E+02 0.85820335925E+01 0.59926906804E+01 0.37029378316E+01
 0.83650456828E-02 0.83236288119E-02 0.13272809052E+01 0.37028049709E+01 0.66827633797E+01
 0.97428210324E+01 0.12406189038E+02 0.14329567186E+02 0.15341407056E+02 0.15440152622E+02
 0.14767140365E+02 0.13563174564E+02 0.12112841579E+02 0.10673499764E+02 0.93736289348E+01
 0.82645939677E+01 0.73631054141E+01 0.66641221497E+01 0.61540689070E+01 0.58202408980E+01
 0.56548773047E+01 0.56548825564E+01 0.58202484533E+01 0.61540675006E+01 0.66641155966E+01
 0.73631056370E+01 0.82646001354E+01 0.93736277967E+01 0.10673488862E+02 0.12112838176E+02
 0.13563191561E+02 0.14767160877E+02 0.15440141750E+02 0.15341351130E+02 0.14329494888E+02
 0.12406151452E+02 0.97428533487E+01 0.66828626382E+01 0.37029340925E+01 0.13273880690E+01
 0.83953775961E-02 0.15688791775E+01 0.43545329165E+01 0.78049088626E+01 0.11299876695E+02
 0.14308664527E+02 0.16476074451E+02 0.17643155965E+02 0.17827480410E+02 0.17187109052E+02
 0.15976225001E+02 0.14491105608E+02 0.12998766850E+02 0.11631567312E+02 0.10445288697E+02
 0.94633297768E+01 0.86879733923E+01 0.81127091205E+01 0.77311689874E+01 0.75405547166E+01
 0.75405483056E+01 0.77311595990E+01 0.81127106875E+01 0.86879828436E+01 0.94633341546E+01
 0.10445286392E+02 0.11631567871E+02 0.12998772667E+02 0.14491107770E+02 0.15976216755E+02