   2   2   0   0
  0.2001288E+02  0.3839590E-09  0.3839590E-09  0.3839590E-09  0.5000000E-15
   1.0000000000000000E-004
  CAR 
 Si G0W0                                 
     78.56957079    -10.98619575  301      5.46967635      1.00000000
    -10.986  0.0000E+00  0.0000E+00
    -10.688  0.0000E+00  0.0000E+00
    -10.389  0.0000E+00  0.0000E+00
    -10.091  0.0000E+00  0.0000E+00
     -9.792  0.0000E+00  0.0000E+00
     -9.494  0.0000E+00  0.0000E+00
     -9.195  0.0000E+00  0.0000E+00
     -8.897  0.0000E+00  0.0000E+00
     -8.598  0.0000E+00  0.0000E+00
     -8.300  0.0000E+00  0.0000E+00
     -8.001  0.0000E+00  0.0000E+00
     -7.702  0.0000E+00  0.0000E+00
     -7.404  0.0000E+00  0.0000E+00
     -7.105  0.1200E-08  0.3584E-09
     -6.807  0.3098E-01  0.9249E-02
     -6.508  0.2357E+00  0.7961E-01
     -6.210  0.1986E+00  0.1389E+00
     -5.911  0.3615E+00  0.2468E+00
     -5.613  0.5368E+00  0.4070E+00
     -5.314  0.4665E+00  0.5463E+00
     -5.016  0.1132E+00  0.5801E+00
     -4.717  0.8271E+00  0.8270E+00
     -4.419  0.1383E+01  0.1240E+01
     -4.120  0.2189E+00  0.1306E+01
     -3.822  0.6095E+00  0.1487E+01
     -3.523  0.1251E+01  0.1861E+01
     -3.225  0.0000E+00  0.1861E+01
     -2.926  0.1059E-05  0.1861E+01
     -2.628  0.7469E+00  0.2084E+01
     -2.329  0.1836E+00  0.2139E+01
     -2.031  0.2869E-02  0.2140E+01
     -1.732  0.1048E+01  0.2453E+01
     -1.434  0.1675E+01  0.2953E+01
     -1.135  0.3834E-02  0.2954E+01
     -0.837  0.7444E+00  0.3176E+01
     -0.538  0.7294E+00  0.3394E+01
     -0.240  0.2615E+00  0.3472E+01
      0.059  0.1549E+00  0.3518E+01
      0.358  0.3290E-01  0.3528E+01
      0.656  0.1100E+01  0.3856E+01
      0.955  0.2999E+00  0.3946E+01
      1.253  0.4961E+00  0.4094E+01
      1.552  0.2569E+01  0.4861E+01
      1.850  0.6930E-03  0.4861E+01
      2.149  0.8759E+00  0.5123E+01
      2.447  0.1961E+01  0.5708E+01
      2.746  0.1857E+01  0.6263E+01
      3.044  0.9628E+00  0.6550E+01
      3.343  0.1987E+01  0.7143E+01
      3.641  0.4841E-01  0.7158E+01
      3.940  0.1352E+01  0.7561E+01
      4.238  0.5079E+00  0.7713E+01
      4.537  0.2821E+00  0.7797E+01
      4.835  0.5864E+00  0.7972E+01
      5.134  0.8014E-01  0.7996E+01
      5.432  0.1291E-01  0.8000E+01
      5.731  0.0000E+00  0.8000E+01
      6.029  0.2273E-15  0.8000E+01
      6.328  0.1925E+00  0.8057E+01
      6.626  0.2174E+00  0.8122E+01
      6.925  0.7067E+00  0.8333E+01
      7.223  0.2113E+00  0.8396E+01
      7.522  0.6542E+00  0.8592E+01
      7.821  0.1733E+01  0.9109E+01
      8.119  0.1455E+00  0.9153E+01
      8.418  0.2064E+01  0.9769E+01
      8.716  0.1116E+01  0.1010E+02
      9.015  0.1209E+01  0.1046E+02
      9.313  0.1614E+01  0.1094E+02
      9.612  0.1794E+01  0.1148E+02
      9.910  0.2111E+01  0.1211E+02
     10.209  0.2637E+01  0.1290E+02
     10.507  0.1024E+01  0.1320E+02
     10.806  0.3996E-01  0.1322E+02
     11.104  0.7045E+00  0.1343E+02
     11.403  0.8308E+00  0.1367E+02
     11.701  0.6458E+00  0.1387E+02
     12.000  0.8190E+00  0.1411E+02
     12.298  0.1941E+01  0.1469E+02
     12.597  0.2642E+01  0.1548E+02
     12.895  0.1849E+01  0.1603E+02
     13.194  0.2000E+01  0.1663E+02
     13.492  0.1696E+01  0.1714E+02
     13.791  0.7500E-01  0.1716E+02
     14.089  0.5145E+00  0.1731E+02
     14.388  0.2251E+01  0.1798E+02
     14.686  0.1813E+01  0.1852E+02
     14.985  0.6973E+00  0.1873E+02
     15.283  0.6173E+00  0.1892E+02
     15.582  0.7944E+00  0.1915E+02
     15.881  0.3665E+01  0.2025E+02
     16.179  0.1077E+01  0.2057E+02
     16.478  0.4719E+00  0.2071E+02
     16.776  0.1119E+01  0.2104E+02
     17.075  0.2338E+01  0.2174E+02
     17.373  0.3081E+00  0.2183E+02
     17.672  0.1111E+01  0.2217E+02
     17.970  0.2486E+01  0.2291E+02
     18.269  0.2594E+01  0.2368E+02
     18.567  0.1486E+01  0.2413E+02
     18.866  0.1868E+01  0.2468E+02
     19.164  0.9165E+00  0.2496E+02
     19.463  0.2036E+00  0.2502E+02
     19.761  0.8626E+00  0.2528E+02
     20.060  0.1912E+01  0.2585E+02
     20.358  0.9424E+00  0.2613E+02
     20.657  0.1536E+01  0.2659E+02
     20.955  0.1808E+01  0.2713E+02
     21.254  0.2584E+01  0.2790E+02
     21.552  0.1938E+01  0.2848E+02
     21.851  0.2244E+01  0.2915E+02
     22.149  0.1466E+01  0.2958E+02
     22.448  0.1491E+01  0.3003E+02
     22.746  0.6111E+00  0.3021E+02
     23.045  0.1866E+01  0.3077E+02
     23.344  0.1700E+01  0.3128E+02
     23.642  0.3055E+00  0.3137E+02
     23.941  0.2481E+01  0.3211E+02
     24.239  0.2058E+01  0.3272E+02
     24.538  0.5039E+00  0.3287E+02
     24.836  0.1712E+01  0.3338E+02
     25.135  0.2453E+01  0.3412E+02
     25.433  0.8803E+00  0.3438E+02
     25.732  0.4012E+01  0.3558E+02
     26.030  0.1756E+01  0.3610E+02
     26.329  0.1632E+01  0.3659E+02
     26.627  0.9726E+00  0.3688E+02
     26.926  0.2988E+01  0.3777E+02
     27.224  0.2354E+00  0.3784E+02
     27.523  0.1585E+01  0.3832E+02
     27.821  0.1652E+01  0.3881E+02
     28.120  0.1932E+01  0.3938E+02
     28.418  0.1817E+01  0.3993E+02
     28.717  0.1606E+01  0.4041E+02
     29.015  0.1374E+01  0.4082E+02
     29.314  0.2849E+01  0.4167E+02
     29.612  0.3698E+00  0.4178E+02
     29.911  0.1180E+01  0.4213E+02
     30.209  0.1340E+01  0.4253E+02
     30.508  0.1081E+01  0.4285E+02
     30.806  0.1949E+01  0.4343E+02
     31.105  0.8728E+00  0.4369E+02
     31.404  0.1663E+01  0.4419E+02
     31.702  0.2175E+01  0.4484E+02
     32.001  0.3099E+01  0.4577E+02
     32.299  0.1431E+01  0.4619E+02
     32.598  0.2238E+01  0.4686E+02
     32.896  0.2916E+01  0.4773E+02
     33.195  0.1227E+00  0.4777E+02
     33.493  0.6455E+00  0.4796E+02
     33.792  0.2818E+01  0.4880E+02
     34.090  0.6489E+00  0.4900E+02
     34.389  0.1381E+01  0.4941E+02
     34.687  0.2787E+01  0.5024E+02
     34.986  0.2722E+01  0.5105E+02
     35.284  0.2647E+01  0.5184E+02
     35.583  0.2005E+01  0.5244E+02
     35.881  0.1250E+01  0.5281E+02
     36.180  0.1529E+01  0.5327E+02
     36.478  0.1456E+01  0.5371E+02
     36.777  0.1644E+01  0.5420E+02
     37.075  0.2160E+01  0.5484E+02
     37.374  0.3112E+01  0.5577E+02
     37.672  0.3122E+01  0.5670E+02
     37.971  0.2336E+01  0.5740E+02
     38.269  0.5613E+00  0.5757E+02
     38.568  0.1170E+01  0.5792E+02
     38.867  0.1198E+00  0.5795E+02
     39.165  0.4798E+01  0.5938E+02
     39.464  0.1320E+01  0.5978E+02
     39.762  0.2666E+01  0.6057E+02
     40.061  0.7280E+00  0.6079E+02
     40.359  0.5227E+00  0.6095E+02
     40.658  0.2872E+01  0.6181E+02
     40.956  0.1680E+01  0.6231E+02
     41.255  0.9846E+00  0.6260E+02
     41.553  0.1176E+01  0.6295E+02
     41.852  0.1392E+01  0.6337E+02
     42.150  0.2163E+01  0.6401E+02
     42.449  0.2965E+01  0.6490E+02
     42.747  0.1737E+01  0.6542E+02
     43.046  0.2283E+01  0.6610E+02
     43.344  0.2396E+01  0.6681E+02
     43.643  0.4841E+00  0.6696E+02
     43.941  0.1235E+01  0.6733E+02
     44.240  0.2803E+01  0.6816E+02
     44.538  0.2394E+01  0.6888E+02
     44.837  0.1240E+01  0.6925E+02
     45.135  0.1088E+01  0.6957E+02
     45.434  0.2779E+01  0.7040E+02
     45.732  0.4413E+01  0.7172E+02
     46.031  0.1133E+01  0.7206E+02
     46.329  0.1350E+01  0.7246E+02
     46.628  0.1546E+01  0.7292E+02
     46.927  0.1613E+01  0.7341E+02
     47.225  0.8737E+00  0.7367E+02
     47.524  0.3732E+01  0.7478E+02
     47.822  0.3098E+01  0.7570E+02
     48.121  0.1605E+01  0.7618E+02
     48.419  0.2518E+01  0.7694E+02
     48.718  0.1318E+01  0.7733E+02
     49.016  0.1855E+01  0.7788E+02
     49.315  0.4662E+01  0.7928E+02
     49.613  0.6604E+00  0.7947E+02
     49.912  0.1649E+01  0.7996E+02
     50.210  0.3956E+01  0.8115E+02
     50.509  0.9331E+00  0.8142E+02
     50.807  0.1646E+01  0.8192E+02
     51.106  0.2981E+00  0.8200E+02
     51.404  0.3472E+01  0.8304E+02
     51.703  0.2283E+01  0.8372E+02
     52.001  0.9578E+00  0.8401E+02
     52.300  0.3672E+01  0.8510E+02
     52.598  0.1116E+01  0.8544E+02
     52.897  0.2372E+01  0.8615E+02
     53.195  0.2623E+01  0.8693E+02
     53.494  0.3019E+01  0.8783E+02
     53.792  0.3459E+01  0.8886E+02
     54.091  0.3754E+01  0.8998E+02
     54.390  0.6749E+00  0.9019E+02
     54.688  0.9148E+00  0.9046E+02
     54.987  0.1470E+01  0.9090E+02
     55.285  0.1104E+01  0.9123E+02
     55.584  0.3286E+01  0.9221E+02
     55.882  0.3496E+01  0.9325E+02
     56.181  0.2512E+01  0.9400E+02
     56.479  0.2109E+01  0.9463E+02
     56.778  0.1760E+01  0.9516E+02
     57.076  0.1151E+01  0.9550E+02
     57.375  0.9305E-01  0.9553E+02
     57.673  0.6275E+00  0.9572E+02
     57.972  0.2597E+01  0.9649E+02
     58.270  0.1434E+01  0.9692E+02
     58.569  0.2762E+01  0.9774E+02
     58.867  0.4025E+01  0.9894E+02
     59.166  0.1921E+01  0.9952E+02
     59.464  0.1770E+01  0.1000E+03
     59.763  0.1591E+01  0.1005E+03
     60.061  0.2366E+01  0.1012E+03
     60.360  0.2103E+01  0.1019E+03
     60.658  0.3321E+01  0.1028E+03
     60.957  0.2709E+01  0.1037E+03
     61.255  0.4453E+01  0.1050E+03
     61.554  0.3073E+00  0.1051E+03
     61.852  0.1785E+01  0.1056E+03
     62.151  0.1466E+01  0.1060E+03
     62.450  0.1985E+01  0.1066E+03
     62.748  0.3611E+01  0.1077E+03
     63.047  0.2618E+01  0.1085E+03
     63.345  0.3671E+01  0.1096E+03
     63.644  0.1681E+01  0.1101E+03
     63.942  0.4102E+01  0.1113E+03
     64.241  0.2033E+01  0.1119E+03
     64.539  0.1702E+01  0.1124E+03
     64.838  0.4784E+01  0.1139E+03
     65.136  0.2603E+01  0.1146E+03
     65.435  0.1809E+01  0.1152E+03
     65.733  0.1693E+01  0.1157E+03
     66.032  0.2178E+01  0.1163E+03
     66.330  0.4274E+00  0.1165E+03
     66.629  0.1528E+01  0.1169E+03
     66.927  0.1903E+01  0.1175E+03
     67.226  0.2887E+01  0.1184E+03
     67.524  0.4337E+01  0.1196E+03
     67.823  0.3257E+01  0.1206E+03
     68.121  0.7454E+00  0.1208E+03
     68.420  0.2483E+01  0.1216E+03
     68.718  0.8634E+00  0.1218E+03
     69.017  0.2298E+01  0.1225E+03
     69.315  0.6291E+01  0.1244E+03
     69.614  0.3386E+01  0.1254E+03
     69.913  0.9936E+00  0.1257E+03
     70.211  0.1567E+01  0.1262E+03
     70.510  0.2180E+01  0.1268E+03
     70.808  0.2213E+01  0.1275E+03
     71.107  0.8336E+00  0.1277E+03
     71.405  0.7562E+00  0.1280E+03
     71.704  0.1727E-01  0.1280E+03
     72.002  0.0000E+00  0.1280E+03
     72.301  0.0000E+00  0.1280E+03
     72.599  0.0000E+00  0.1280E+03
     72.898  0.0000E+00  0.1280E+03
     73.196  0.0000E+00  0.1280E+03
     73.495  0.0000E+00  0.1280E+03
     73.793  0.0000E+00  0.1280E+03
     74.092  0.0000E+00  0.1280E+03
     74.390  0.9948E-04  0.1280E+03
     74.689  0.9295E-01  0.1280E+03
     74.987  0.0000E+00  0.1280E+03
     75.286  0.0000E+00  0.1280E+03
     75.584  0.0000E+00  0.1280E+03
     75.883  0.0000E+00  0.1280E+03
     76.181  0.0000E+00  0.1280E+03
     76.480  0.0000E+00  0.1280E+03
     76.778  0.0000E+00  0.1280E+03
     77.077  0.0000E+00  0.1280E+03
     77.375  0.0000E+00  0.1280E+03
     77.674  0.0000E+00  0.1280E+03
     77.973  0.0000E+00  0.1280E+03
     78.271  0.0000E+00  0.1280E+03
     78.570  0.0000E+00  0.1280E+03
