    2    2    1    1
  0.2001288E+02  0.3839590E-09  0.3839590E-09  0.3839590E-09  0.5000000E-15
   1.0000000000000000E-004
  CAR 
 Si G0W0                                 
      8     16     64

  0.1262379E-14  0.1262379E-14  0.1262379E-14  0.4629630E-02
      1         -6.915479   1.000000
      2          5.095452   1.000000
      3          5.095452   1.000000
      4          5.095452   1.000000
      5          8.345456   0.000000
      6          8.345456   0.000000
      7          8.345456   0.000000
      8          9.269245   0.000000
      9         12.897493   0.000000
     10         12.897493   0.000000
     11         13.199089   0.000000
     12         16.569403   0.000000
     13         16.569403   0.000000
     14         16.569403   0.000000
     15         20.764308   0.000000
     16         28.057546   0.000000
     17         28.057546   0.000000
     18         28.057546   0.000000
     19         29.114243   0.000000
     20         29.114243   0.000000
     21         30.716580   0.000000
     22         30.716580   0.000000
     23         30.716580   0.000000
     24         34.453425   0.000000
     25         34.453425   0.000000
     26         34.453425   0.000000
     27         39.703925   0.000000
     28         39.703925   0.000000
     29         39.703925   0.000000
     30         43.571306   0.000000
     31         43.571306   0.000000
     32         43.632034   0.000000
     33         45.778575   0.000000
     34         45.778575   0.000000
     35         47.511196   0.000000
     36         47.511196   0.000000
     37         47.511196   0.000000
     38         49.195299   0.000000
     39         49.195299   0.000000
     40         49.195299   0.000000
     41         49.474732   0.000000
     42         50.282951   0.000000
     43         50.282951   0.000000
     44         50.282951   0.000000
     45         50.328364   0.000000
     46         50.328364   0.000000
     47         50.328364   0.000000
     48         51.774015   0.000000
     49         51.774015   0.000000
     50         51.774015   0.000000
     51         55.724619   0.000000
     52         56.822256   0.000000
     53         56.822256   0.000000
     54         56.822256   0.000000
     55         57.222102   0.000000
     56         57.222102   0.000000
     57         57.222102   0.000000
     58         62.302288   0.000000
     59         63.212993   0.000000
     60         71.103911   0.000000
     61         71.103911   0.000000
     62         74.498854   0.000000
     63         74.498854   0.000000
     64         74.498854   0.000000

  0.1666667E+00  0.1267410E-14  0.1267410E-14  0.3703704E-01
      1         -6.560566   1.000000
      2          2.668130   1.000000
      3          4.639578   1.000000
      4          4.639578   1.000000
      5          8.119000   0.000000
      6          8.993223   0.000000
      7          8.993223   0.000000
      8         11.267828   0.000000
      9         12.300394   0.000000
     10         12.300394   0.000000
     11         14.324812   0.000000
     12         15.952930   0.000000
     13         18.382702   0.000000
     14         18.382702   0.000000
     15         22.659139   0.000000
     16         25.009998   0.000000
     17         25.009998   0.000000
     18         25.634121   0.000000
     19         28.826192   0.000000
     20         28.826192   0.000000
     21         31.372475   0.000000
     22         31.372475   0.000000
     23         32.660258   0.000000
     24         34.772108   0.000000
     25         36.255840   0.000000
     26         37.495748   0.000000
     27         37.495748   0.000000
     28         38.980857   0.000000
     29         38.980857   0.000000
     30         40.663930   0.000000
     31         40.663930   0.000000
     32         43.273323   0.000000
     33         43.273323   0.000000
     34         44.280472   0.000000
     35         46.308992   0.000000
     36         46.549707   0.000000
     37         46.884529   0.000000
     38         46.884529   0.000000
     39         48.689528   0.000000
     40         49.188551   0.000000
     41         49.188551   0.000000
     42         49.425656   0.000000
     43         50.565749   0.000000
     44         50.580021   0.000000
     45         50.580021   0.000000
     46         53.374940   0.000000
     47         53.588258   0.000000
     48         53.588258   0.000000
     49         54.845724   0.000000
     50         54.845724   0.000000
     51         56.490769   0.000000
     52         56.930140   0.000000
     53         58.236093   0.000000
     54         58.236093   0.000000
     55         60.666944   0.000000
     56         60.666944   0.000000
     57         61.550749   0.000000
     58         64.695225   0.000000
     59         66.901024   0.000000
     60         67.282859   0.000000
     61         67.282859   0.000000
     62         69.805162   0.000000
     63         70.915961   0.000000
     64         70.915961   0.000000

  0.3333333E+00  0.1294631E-14  0.1294631E-14  0.3703704E-01
      1         -5.553905   1.000000
      2         -0.326928   1.000000
      3          4.057801   1.000000
      4          4.057801   1.000000
      5          7.499650   0.000000
      6          9.284765   0.000000
      7          9.284765   0.000000
      8         13.470203   0.000000
      9         13.150997   0.000000
     10         13.150997   0.000000
     11         14.257901   0.000000
     12         18.721025   0.000000
     13         19.680950   0.000000
     14         19.680950   0.000000
     15         21.844354   0.000000
     16         22.908642   0.000000
     17         22.908642   0.000000
     18         27.250550   0.000000
     19         28.951687   0.000000
     20         28.951687   0.000000
     21         30.230886   0.000000
     22         31.732383   0.000000
     23         31.732383   0.000000
     24         34.609690   0.000000
     25         34.609690   0.000000
     26         34.920731   0.000000
     27         35.588126   0.000000
     28         37.882296   0.000000
     29         37.882296   0.000000
     30         39.014818   0.000000
     31         39.014818   0.000000
     32         41.081417   0.000000
     33         43.265435   0.000000
     34         43.282777   0.000000
     35         45.378485   0.000000
     36         45.378485   0.000000
     37         46.368430   0.000000
     38         46.368430   0.000000
     39         48.299958   0.000000
     40         49.120775   0.000000
     41         49.123076   0.000000
     42         49.123076   0.000000
     43         51.213559   0.000000
     44         53.334038   0.000000
     45         53.334038   0.000000
     46         55.771381   0.000000
     47         55.771381   0.000000
     48         57.803399   0.000000
     49         58.565728   0.000000
     50         58.565728   0.000000
     51         59.137915   0.000000
     52         62.231802   0.000000
     53         62.231802   0.000000
     54         62.718329   0.000000
     55         63.889018   0.000000
     56         63.889018   0.000000
     57         64.038095   0.000000
     58         65.499156   0.000000
     59         65.987147   0.000000
     60         65.987147   0.000000
     61         66.969180   0.000000
     62         66.969180   0.000000
     63         66.990984   0.000000
     64         69.169316   0.000000

  0.5000000E+00  0.1265300E-14  0.1265300E-14  0.1851852E-01
      1         -4.595952   1.000000
      2         -1.960152   1.000000
      3          3.845471   1.000000
      4          3.845471   1.000000
      5          7.266945   0.000000
      6          9.106730   0.000000
      7          9.106730   0.000000
      8         13.084528   0.000000
      9         15.660411   0.000000
     10         15.660411   0.000000
     11         16.357510   0.000000
     12         16.457525   0.000000
     13         16.457525   0.000000
     14         17.997929   0.000000
     15         24.390594   0.000000
     16         25.122870   0.000000
     17         26.838434   0.000000
     18         26.838434   0.000000
     19         26.858787   0.000000
     20         26.858787   0.000000
     21         30.875879   0.000000
     22         31.551013   0.000000
     23         31.551013   0.000000
     24         32.372785   0.000000
     25         32.372785   0.000000
     26         33.743459   0.000000
     27         36.170677   0.000000
     28         37.537769   0.000000
     29         37.537769   0.000000
     30         38.048303   0.000000
     31         38.048303   0.000000
     32         38.957624   0.000000
     33         41.856275   0.000000
     34         42.047601   0.000000
     35         46.001193   0.000000
     36         46.001193   0.000000
     37         47.844868   0.000000
     38         47.844868   0.000000
     39         48.062624   0.000000
     40         48.875485   0.000000
     41         51.222009   0.000000
     42         51.222009   0.000000
     43         53.415627   0.000000
     44         53.415627   0.000000
     45         54.152344   0.000000
     46         57.765716   0.000000
     47         57.765716   0.000000
     48         57.890457   0.000000
     49         59.350155   0.000000
     50         59.350155   0.000000
     51         59.648031   0.000000
     52         61.082053   0.000000
     53         61.082053   0.000000
     54         63.584698   0.000000
     55         63.584698   0.000000
     56         64.419586   0.000000
     57         64.419586   0.000000
     58         64.549069   0.000000
     59         66.867106   0.000000
     60         67.273922   0.000000
     61         67.885408   0.000000
     62         67.885408   0.000000
     63         69.453777   0.000000
     64         70.118186   0.000000

  0.1666667E+00  0.1666667E+00  0.1270793E-14  0.2777778E-01
      1         -6.439897   1.000000
      2          3.035683   1.000000
      3          3.872920   1.000000
      4          3.872920   1.000000
      5          7.397561   0.000000
      6         10.098684   0.000000
      7         10.131272   0.000000
      8         10.131272   0.000000
      9         11.694851   0.000000
     10         13.433996   0.000000
     11         14.962621   0.000000
     12         17.385172   0.000000
     13         17.385172   0.000000
     14         17.929744   0.000000
     15         23.681704   0.000000
     16         24.519977   0.000000
     17         24.519977   0.000000
     18         25.712928   0.000000
     19         26.888857   0.000000
     20         28.773702   0.000000
     21         31.513801   0.000000
     22         32.113028   0.000000
     23         32.113028   0.000000
     24         36.957403   0.000000
     25         36.957403   0.000000
     26         37.078387   0.000000
     27         37.686691   0.000000
     28         37.686691   0.000000
     29         37.902510   0.000000
     30         38.870058   0.000000
     31         41.463836   0.000000
     32         42.715480   0.000000
     33         44.588747   0.000000
     34         44.588747   0.000000
     35         45.660133   0.000000
     36         45.682903   0.000000
     37         46.751389   0.000000
     38         46.943484   0.000000
     39         46.943484   0.000000
     40         49.135243   0.000000
     41         49.135243   0.000000
     42         50.117028   0.000000
     43         51.205656   0.000000
     44         52.229232   0.000000
     45         52.649755   0.000000
     46         52.649755   0.000000
     47         53.932533   0.000000
     48         53.972447   0.000000
     49         53.972447   0.000000
     50         54.639211   0.000000
     51         54.917020   0.000000
     52         56.958312   0.000000
     53         58.681745   0.000000
     54         58.681745   0.000000
     55         61.773547   0.000000
     56         62.505119   0.000000
     57         64.072302   0.000000
     58         64.072302   0.000000
     59         65.739728   0.000000
     60         66.065781   0.000000
     61         70.139371   0.000000
     62         70.139371   0.000000
     63         70.715248   0.000000
     64         71.281467   0.000000

  0.3333333E+00  0.1666667E+00  0.1277870E-14  0.1111111E+00
      1         -5.630455   1.000000
      2          0.584139   1.000000
      3          3.056098   1.000000
      4          3.287589   1.000000
      5          7.640055   0.000000
      6          9.869474   0.000000
      7         10.196893   0.000000
      8         10.862637   0.000000
      9         14.111269   0.000000
     10         14.224989   0.000000
     11         15.674406   0.000000
     12         18.078759   0.000000
     13         18.866132   0.000000
     14         20.384970   0.000000
     15         21.261926   0.000000
     16         22.236767   0.000000
     17         24.867157   0.000000
     18         25.627213   0.000000
     19         26.825553   0.000000
     20         28.641443   0.000000
     21         30.627495   0.000000
     22         31.388579   0.000000
     23         32.350457   0.000000
     24         34.769635   0.000000
     25         35.029248   0.000000
     26         35.154297   0.000000
     27         36.909397   0.000000
     28         37.428931   0.000000
     29         38.279684   0.000000
     30         39.102890   0.000000
     31         40.612693   0.000000
     32         41.852090   0.000000
     33         42.708174   0.000000
     34         43.046307   0.000000
     35         44.073554   0.000000
     36         45.458296   0.000000
     37         46.508393   0.000000
     38         47.449341   0.000000
     39         49.002731   0.000000
     40         49.153216   0.000000
     41         49.963888   0.000000
     42         50.063279   0.000000
     43         51.300790   0.000000
     44         51.663593   0.000000
     45         52.921874   0.000000
     46         53.607943   0.000000
     47         55.606807   0.000000
     48         56.027172   0.000000
     49         56.105751   0.000000
     50         57.778358   0.000000
     51         59.700162   0.000000
     52         60.335738   0.000000
     53         61.614623   0.000000
     54         63.295752   0.000000
     55         63.329847   0.000000
     56         64.517463   0.000000
     57         64.625597   0.000000
     58         65.757764   0.000000
     59         67.062588   0.000000
     60         67.163034   0.000000
     61         68.210159   0.000000
     62         68.306316   0.000000
     63         69.075545   0.000000
     64         69.533663   0.000000

  0.5000000E+00  0.1666667E+00  0.1285715E-14  0.1111111E+00
      1         -4.437916   1.000000
      2         -1.588768   1.000000
      3          2.241761   1.000000
      4          3.249950   1.000000
      5          7.736526   0.000000
      6          9.849120   0.000000
      7         10.395596   0.000000
      8         12.117358   0.000000
      9         14.611486   0.000000
     10         15.584097   0.000000
     11         16.902568   0.000000
     12         16.929788   0.000000
     13         17.698827   0.000000
     14         21.150131   0.000000
     15         23.050832   0.000000
     16         24.196615   0.000000
     17         25.352411   0.000000
     18         25.658735   0.000000
     19         26.142147   0.000000
     20         27.803712   0.000000
     21         29.189979   0.000000
     22         31.500943   0.000000
     23         32.012537   0.000000
     24         32.433028   0.000000
     25         32.801969   0.000000
     26         34.639371   0.000000
     27         35.386445   0.000000
     28         35.668589   0.000000
     29         37.286813   0.000000
     30         38.975538   0.000000
     31         39.634612   0.000000
     32         40.443866   0.000000
     33         42.143482   0.000000
     34         42.218820   0.000000
     35         44.357419   0.000000
     36         45.561405   0.000000
     37         47.660941   0.000000
     38         48.254115   0.000000
     39         49.784561   0.000000
     40         51.115435   0.000000
     41         51.332758   0.000000
     42         51.987014   0.000000
     43         52.760838   0.000000
     44         52.965582   0.000000
     45         53.224927   0.000000
     46         55.398995   0.000000
     47         55.683885   0.000000
     48         57.750347   0.000000
     49         58.672577   0.000000
     50         59.209080   0.000000
     51         60.488304   0.000000
     52         61.148576   0.000000
     53         62.340102   0.000000
     54         62.939543   0.000000
     55         64.136826   0.000000
     56         64.891172   0.000000
     57         65.148285   0.000000
     58         65.672974   0.000000
     59         66.711931   0.000000
     60         66.891203   0.000000
     61         67.745913   0.000000
     62         69.168824   0.000000
     63         69.248377   0.000000
     64         69.313540   0.000000

 -0.3333333E+00  0.1666667E+00  0.1292515E-14  0.1111111E+00
      1         -4.826066   1.000000
      2         -0.988941   1.000000
      3          1.960136   1.000000
      4          3.748062   1.000000
      5          8.191755   0.000000
      6          9.822933   0.000000
      7         10.010170   0.000000
      8         12.985270   0.000000
      9         12.493858   0.000000
     10         14.544111   0.000000
     11         16.687785   0.000000
     12         17.810739   0.000000
     13         20.054224   0.000000
     14         20.447696   0.000000
     15         21.412630   0.000000
     16         23.092900   0.000000
     17         24.969384   0.000000
     18         26.878411   0.000000
     19         27.274983   0.000000
     20         28.074888   0.000000
     21         29.926016   0.000000
     22         30.268430   0.000000
     23         32.299257   0.000000
     24         32.761784   0.000000
     25         33.554566   0.000000
     26         33.648787   0.000000
     27         34.955179   0.000000
     28         37.276442   0.000000
     29         38.507066   0.000000
     30         38.976863   0.000000
     31         39.583664   0.000000
     32         40.961103   0.000000
     33         42.201204   0.000000
     34         42.791754   0.000000
     35         44.230408   0.000000
     36         45.493622   0.000000
     37         45.884780   0.000000
     38         47.556563   0.000000
     39         47.767963   0.000000
     40         50.082746   0.000000
     41         52.070279   0.000000
     42         52.644290   0.000000
     43         53.094390   0.000000
     44         53.190599   0.000000
     45         53.915491   0.000000
     46         55.047091   0.000000
     47         56.709614   0.000000
     48         58.471610   0.000000
     49         58.742975   0.000000
     50         58.769810   0.000000
     51         60.049969   0.000000
     52         60.871659   0.000000
     53         61.096937   0.000000
     54         62.729480   0.000000
     55         63.245451   0.000000
     56         63.879956   0.000000
     57         64.478974   0.000000
     58         64.762868   0.000000
     59         65.926930   0.000000
     60         67.402559   0.000000
     61         68.116390   0.000000
     62         69.304097   0.000000
     63         69.490539   0.000000
     64         70.028214   0.000000

 -0.1666667E+00  0.1666667E+00  0.1283064E-14  0.5555556E-01
      1         -5.978501   1.000000
      2          1.307263   1.000000
      3          2.617728   1.000000
      4          4.512357   1.000000
      5          8.849541   0.000000
      6          9.353788   0.000000
      7          9.531409   0.000000
      8         11.404459   0.000000
      9         11.336262   0.000000
     10         14.429319   0.000000
     11         15.680748   0.000000
     12         16.768927   0.000000
     13         18.606653   0.000000
     14         20.766900   0.000000
     15         21.182819   0.000000
     16         23.772997   0.000000
     17         25.574315   0.000000
     18         25.704947   0.000000
     19         26.469962   0.000000
     20         27.473353   0.000000
     21         31.458602   0.000000
     22         31.698064   0.000000
     23         33.633759   0.000000
     24         34.250435   0.000000
     25         35.725109   0.000000
     26         36.298441   0.000000
     27         36.641131   0.000000
     28         38.981873   0.000000
     29         39.104943   0.000000
     30         39.291255   0.000000
     31         39.556703   0.000000
     32         40.522820   0.000000
     33         43.834163   0.000000
     34         44.097057   0.000000
     35         44.451140   0.000000
     36         45.187764   0.000000
     37         45.687608   0.000000
     38         46.065379   0.000000
     39         47.881868   0.000000
     40         49.390558   0.000000
     41         50.037614   0.000000
     42         50.057655   0.000000
     43         52.022544   0.000000
     44         52.184521   0.000000
     45         52.341230   0.000000
     46         53.562888   0.000000
     47         53.936852   0.000000
     48         54.808542   0.000000
     49         57.562459   0.000000
     50         58.414632   0.000000
     51         58.591361   0.000000
     52         59.832591   0.000000
     53         61.179419   0.000000
     54         62.056383   0.000000
     55         62.271561   0.000000
     56         63.680362   0.000000
     57         63.811683   0.000000
     58         63.856677   0.000000
     59         65.073378   0.000000
     60         65.147717   0.000000
     61         68.512843   0.000000
     62         68.610019   0.000000
     63         69.689195   0.000000
     64         70.167594   0.000000

  0.3333333E+00  0.3333333E+00  0.1279207E-14  0.2777778E-01
      1         -5.025547   1.000000
      2          0.026219   1.000000
      3          2.585792   1.000000
      4          2.585792   1.000000
      5          6.343059   0.000000
      6          7.632220   0.000000
      7         13.041959   0.000000
      8         13.041959   0.000000
      9         14.779997   0.000000
     10         15.034866   0.000000
     11         18.208615   0.000000
     12         18.566658   0.000000
     13         18.566658   0.000000
     14         20.368226   0.000000
     15         21.303590   0.000000
     16         21.673898   0.000000
     17         21.673898   0.000000
     18         24.158705   0.000000
     19         27.884162   0.000000
     20         29.718075   0.000000
     21         30.594895   0.000000
     22         30.594895   0.000000
     23         31.873619   0.000000
     24         32.664970   0.000000
     25         32.909165   0.000000
     26         33.958209   0.000000
     27         33.958209   0.000000
     28         40.333286   0.000000
     29         40.409189   0.000000
     30         40.896502   0.000000
     31         40.896502   0.000000
     32         41.486996   0.000000
     33         43.276677   0.000000
     34         43.276677   0.000000
     35         45.144784   0.000000
     36         45.368347   0.000000
     37         45.368347   0.000000
     38         46.856330   0.000000
     39         48.084283   0.000000
     40         48.869600   0.000000
     41         48.959254   0.000000
     42         48.959254   0.000000
     43         50.698331   0.000000
     44         53.484914   0.000000
     45         53.509438   0.000000
     46         53.509438   0.000000
     47         56.341770   0.000000
     48         58.122402   0.000000
     49         58.649162   0.000000
     50         58.891158   0.000000
     51         58.966301   0.000000
     52         58.966301   0.000000
     53         63.426926   0.000000
     54         63.426926   0.000000
     55         63.506193   0.000000
     56         65.126450   0.000000
     57         65.272224   0.000000
     58         66.351072   0.000000
     59         66.351072   0.000000
     60         68.860701   0.000000
     61         68.860701   0.000000
     62         68.980211   0.000000
     63         69.383341   0.000000
     64         71.358313   0.000000

  0.5000000E+00  0.3333333E+00  0.1281791E-14  0.1111111E+00
      1         -3.853923   1.000000
      2         -1.524330   1.000000
      3          1.346956   1.000000
      4          2.441629   1.000000
      5          6.684367   0.000000
      6          8.373155   0.000000
      7         13.245742   0.000000
      8         13.219860   0.000000
      9         15.653038   0.000000
     10         15.788045   0.000000
     11         17.408900   0.000000
     12         17.843655   0.000000
     13         19.949573   0.000000
     14         20.872376   0.000000
     15         21.018172   0.000000
     16         23.885726   0.000000
     17         23.928409   0.000000
     18         24.705912   0.000000
     19         25.695236   0.000000
     20         27.798841   0.000000
     21         28.432904   0.000000
     22         29.035812   0.000000
     23         29.313473   0.000000
     24         31.791782   0.000000
     25         34.293986   0.000000
     26         34.566067   0.000000
     27         36.870019   0.000000
     28         37.174584   0.000000
     29         37.535870   0.000000
     30         39.820365   0.000000
     31         40.666847   0.000000
     32         41.695116   0.000000
     33         42.399660   0.000000
     34         43.898400   0.000000
     35         44.327565   0.000000
     36         45.659119   0.000000
     37         46.678165   0.000000
     38         47.361702   0.000000
     39         48.584273   0.000000
     40         49.025702   0.000000
     41         49.947472   0.000000
     42         51.667592   0.000000
     43         52.548741   0.000000
     44         53.953213   0.000000
     45         54.508209   0.000000
     46         55.498521   0.000000
     47         55.860961   0.000000
     48         58.268426   0.000000
     49         59.143052   0.000000
     50         59.951318   0.000000
     51         60.638431   0.000000
     52         61.219521   0.000000
     53         61.704834   0.000000
     54         62.899801   0.000000
     55         63.276288   0.000000
     56         64.209732   0.000000
     57         64.631556   0.000000
     58         66.433463   0.000000
     59         67.589376   0.000000
     60         67.598877   0.000000
     61         68.851602   0.000000
     62         69.064494   0.000000
     63         70.301842   0.000000
     64         70.743149   0.000000

 -0.3333333E+00  0.3333333E+00  0.1275216E-14  0.5555556E-01
      1         -3.659567   1.000000
      2         -1.733838   1.000000
      3          0.550706   1.000000
      4          2.899537   1.000000
      5          7.220700   0.000000
      6         11.445237   0.000000
      7         12.256387   0.000000
      8         12.837021   0.000000
      9         12.483340   0.000000
     10         12.823002   0.000000
     11         19.583924   0.000000
     12         20.222032   0.000000
     13         20.678131   0.000000
     14         20.740932   0.000000
     15         21.660609   0.000000
     16         22.520238   0.000000
     17         23.367939   0.000000
     18         25.082736   0.000000
     19         27.294212   0.000000
     20         27.768795   0.000000
     21         28.201707   0.000000
     22         29.213920   0.000000
     23         31.805644   0.000000
     24         31.966481   0.000000
     25         32.674911   0.000000
     26         34.070141   0.000000
     27         34.398845   0.000000
     28         34.514826   0.000000
     29         39.559108   0.000000
     30         40.121478   0.000000
     31         40.445365   0.000000
     32         41.222117   0.000000
     33         42.315698   0.000000
     34         42.877574   0.000000
     35         43.643503   0.000000
     36         44.056556   0.000000
     37         47.066052   0.000000
     38         48.504796   0.000000
     39         48.787573   0.000000
     40         51.469611   0.000000
     41         52.129065   0.000000
     42         52.839148   0.000000
     43         53.552958   0.000000
     44         54.842012   0.000000
     45         55.102457   0.000000
     46         55.834972   0.000000
     47         56.224707   0.000000
     48         58.363682   0.000000
     49         58.626628   0.000000
     50         59.179563   0.000000
     51         59.259505   0.000000
     52         60.245992   0.000000
     53         60.611723   0.000000
     54         61.902570   0.000000
     55         62.835825   0.000000
     56         63.855840   0.000000
     57         65.305665   0.000000
     58         66.014486   0.000000
     59         66.533435   0.000000
     60         67.393973   0.000000
     61         67.548872   0.000000
     62         69.036847   0.000000
     63         69.708173   0.000000
     64         71.258095   0.000000

  0.5000000E+00  0.5000000E+00  0.1287622E-14  0.1388889E-01
      1         -2.770995   1.000000
      2         -2.770995   1.000000
      3          2.132672   1.000000
      4          2.132672   1.000000
      5          6.309345   0.000000
      6          6.309345   0.000000
      7         15.869610   0.000000
      8         15.869610   0.000000
      9         15.995707   0.000000
     10         15.995707   0.000000
     11         17.676915   0.000000
     12         17.676915   0.000000
     13         18.013731   0.000000
     14         18.013731   0.000000
     15         23.974448   0.000000