 vasp.6.5.0 16Dec24 (build Feb 18 2025 08:57:40) complex                         
 executed on             LinuxGNU date 2025.05.31  17:16:19
 running    2 mpi-ranks, with    8 threads/rank, on    1 nodes
 distrk:  each k-point on    2 cores,    1 groups
 distr:  one band on NCORE=   1 cores,    2 groups


--------------------------------------------------------------------------------------------------------


 INCAR:
   SYSTEM = Si G0W0
   ISMEAR = 0
   SIGMA = 0.05
   ENCUT = 400
   NBANDS = 64
   ALGO = EVGW0
   NELMGW = 1
   NOMEGA = 50

 POTCAR:    PAW_PBE Si_GW 04May2012               
 POTCAR:    PAW_PBE Si_GW 04May2012               
   VRHFIN =Si: s2p2                                                                                 
   LEXCH  = PE                                                                                      
   EATOM  =   103.0669 eV,    7.5752 Ry                                                             
                                                                                                    
   TITEL  = PAW_PBE Si_GW 04May2012                                                                 
   LULTRA =        F    use ultrasoft PP ?                                                          
   IUNSCR =        1    unscreen: 0-lin 1-nonlin 2-no                                               
   RPACOR =    1.500    partial core radius                                                         
   POMASS =   28.085; ZVAL   =    4.000    mass and valenz                                          
   RCORE  =    1.900    outmost cutoff radius                                                       
   RWIGS  =    2.480; RWIGS  =    1.312    wigner-seitz radius (au A)                               
   ENMAX  =  245.345; ENMIN  =  184.009 eV                                                          
   ICORE  =        3    local potential                                                             
   LCOR   =        T    correct aug charges                                                         
   LPAW   =        T    paw PP                                                                      
   EAUG   =  412.952                                                                                
   DEXC   =    0.000                                                                                
   RMAX   =    1.950    core radius for proj-oper                                                   
   RAUG   =    1.300    factor for augmentation sphere                                              
   RDEP   =    1.993    radius for radial grids                                                     
   RDEPT  =    2.000    core radius for aug-charge                                                  
                                                                                                    
   Atomic configuration                                                                             
    7 entries                                                                                       
     n  l   j            E        occ.                                                              
     1  0  0.50     -1785.8828   2.0000                                                             
     2  0  0.50      -139.4969   2.0000                                                             
     2  1  1.50       -95.5546   6.0000                                                             
     3  0  0.50       -10.8127   2.0000                                                             
     3  1  0.50        -4.0811   2.0000                                                             
     3  2  1.50        -4.0817   0.0000                                                             
     4  3  2.50        -4.0817   0.0000                                                             
   Description                                                                                      
     l       E           TYP  RCUT    TYP  RCUT                                                     
     0    -10.8127223     23  1.900                                                                 
     0     95.2407820     23  1.900                                                                 
     1     -4.0811372     23  1.900                                                                 
     1     54.4233040     23  1.900                                                                 
     2     -8.1634956     23  1.900                                                                 
     2     81.6349560     23  1.900                                                                 
     3     27.2116520     23  1.900                                                                 
  local pseudopotential read in
  partial core-charges read in
  partial kinetic energy density read in
  kinetic energy density of atom read in
  atomic valenz-charges read in
  non local Contribution for L=           0  read in
    real space projection operators read in
  non local Contribution for L=           0  read in
    real space projection operators read in
  non local Contribution for L=           1  read in
    real space projection operators read in
  non local Contribution for L=           1  read in
    real space projection operators read in
  non local Contribution for L=           2  read in
    real space projection operators read in
  non local Contribution for L=           2  read in
    real space projection operators read in
    PAW grid and wavefunctions read in

   number of l-projection  operators is LMAX  =           6
   number of lm-projection operators is LMMAX =          18

  PAW_PBE Si_GW 04May2012               :
 energy of atom  1       EATOM= -103.0669
 kinetic energy error for atom=    0.0012 (will be added to EATOM!!)


 POSCAR: cd Si
  positions in cartesian coordinates
  No initial velocities read in
 -----------------------------------------------------------------------------
|                                                                             |
|           W    W    AA    RRRRR   N    N  II  N    N   GGGG   !!!           |
|           W    W   A  A   R    R  NN   N  II  NN   N  G    G  !!!           |
|           W    W  A    A  R    R  N N  N  II  N N  N  G       !!!           |
|           W WW W  AAAAAA  RRRRR   N  N N  II  N  N N  G  GGG   !            |
|           WW  WW  A    A  R   R   N   NN  II  N   NN  G    G                |
|           W    W  A    A  R    R  N    N  II  N    N   GGGG   !!!           |
|                                                                             |
|     The default for ENCUTGWSOFT is different in this version of VASP.       |
|     If you wish to obtain identical results as using pre vasp.6.3           |
|     please manually set ENCUTGWSOFT =266.667 in the INCAR file.             |
|                                                                             |
 -----------------------------------------------------------------------------



 exchange-correlation table for PE
   RHO(1)=    0.500       N(1)  =     2000
   RHO(2)=  100.500       N(2)  =     4000



--------------------------------------------------------------------------------------------------------


 ion  position               nearest neighbor table
   1  0.000  0.000  0.000-   2 2.35   2 2.35   2 2.35   2 2.35
   2  0.250  0.250  0.250-   1 2.35   1 2.35   1 2.35   1 2.35

  LATTYP: Found a face centered cubic cell.
 ALAT       =     5.4300000000
  
  Lattice vectors:
  
 A1 = (   2.7150000000,   2.7150000000,   0.0000000000)
 A2 = (   0.0000000000,   2.7150000000,   2.7150000000)
 A3 = (   2.7150000000,   0.0000000000,   2.7150000000)


Analysis of symmetry for initial positions (statically):
=====================================================================
 Subroutine PRICEL returns:
 Original cell was already a primitive cell.
 

 Routine SETGRP: Setting up the symmetry group for a 
 face centered cubic supercell.


 Subroutine GETGRP returns: Found 48 space group operations
 (whereof 24 operations were pure point group operations)
 out of a pool of 48 trial point group operations.


The static configuration has the point symmetry T_d .
 The point group associated with its full space group is O_h .


Analysis of symmetry for dynamics (positions and initial velocities):
=====================================================================
 Subroutine PRICEL returns:
 Original cell was already a primitive cell.
 

 Routine SETGRP: Setting up the symmetry group for a 
 face centered cubic supercell.


 Subroutine GETGRP returns: Found 48 space group operations
 (whereof 24 operations were pure point group operations)
 out of a pool of 48 trial point group operations.


The dynamic configuration has the point symmetry T_d .
 The point group associated with its full space group is O_h .


 Subroutine INISYM returns: Found 48 space group operations
 (whereof 24 operations are pure point group operations),
 and found     1 'primitive' translations


----------------------------------------------------------------------------------------

                                     Primitive cell                                     

  volume of cell :      40.0258

  direct lattice vectors                    reciprocal lattice vectors
     2.715000000  2.715000000  0.000000000     0.184162063  0.184162063 -0.184162063
     0.000000000  2.715000000  2.715000000    -0.184162063  0.184162063  0.184162063
     2.715000000  0.000000000  2.715000000     0.184162063 -0.184162063  0.184162063

  length of vectors
     3.839589822  3.839589822  3.839589822     0.318978049  0.318978049  0.318978049

  position of ions in fractional coordinates (direct lattice)
     0.000000000  0.000000000  0.000000000
     0.250000000  0.250000000  0.250000000

  ion indices of the primitive-cell ions
   primitive index   ion index
                 1           1
                 2           2

----------------------------------------------------------------------------------------



 KPOINTS: k mesh                                  

Automatic generation of k-mesh.
 Grid dimensions read from file:
 generate k-points for:    6    6    6

 Generating k-lattice:

  Cartesian coordinates                     Fractional coordinates (reciprocal lattice)
     0.030693677  0.030693677 -0.030693677     0.166666667  0.000000000  0.000000000
    -0.030693677  0.030693677  0.030693677     0.000000000  0.166666667 -0.000000000
     0.030693677 -0.030693677  0.030693677    -0.000000000 -0.000000000  0.166666667

  Length of vectors
     0.053163008  0.053163008  0.053163008

  Shift w.r.t. Gamma in fractional coordinates (k-lattice)
     0.000000000  0.000000000  0.000000000

 
 Subroutine IBZKPT returns following result:
 ===========================================
 
 Found     16 irreducible k-points:
 
 Following reciprocal coordinates:
            Coordinates               Weight
  0.000000  0.000000  0.000000      1.000000
  0.166667  0.000000  0.000000      8.000000
  0.333333  0.000000  0.000000      8.000000
  0.500000  0.000000  0.000000      4.000000
  0.166667  0.166667  0.000000      6.000000
  0.333333  0.166667  0.000000     24.000000
  0.500000  0.166667  0.000000     24.000000
 -0.333333  0.166667  0.000000     24.000000
 -0.166667  0.166667  0.000000     12.000000
  0.333333  0.333333  0.000000      6.000000
  0.500000  0.333333  0.000000     24.000000
 -0.333333  0.333333  0.000000     12.000000
  0.500000  0.500000  0.000000      3.000000
  0.500000  0.333333  0.166667     24.000000
 -0.333333  0.333333  0.166667     24.000000
 -0.333333  0.500000  0.166667     12.000000
 
 Following cartesian coordinates:
            Coordinates               Weight
  0.000000  0.000000  0.000000      1.000000
  0.166667  0.166667 -0.166667      8.000000
  0.333333  0.333333 -0.333333      8.000000
  0.500000  0.500000 -0.500000      4.000000
  0.000000  0.333333  0.000000      6.000000
  0.166667  0.500000 -0.166667     24.000000
  0.333333  0.666667 -0.333333     24.000000
 -0.500000 -0.166667  0.500000     24.000000
 -0.333333  0.000000  0.333333     12.000000
  0.000000  0.666667  0.000000      6.000000
  0.166667  0.833333 -0.166667     24.000000
 -0.666667  0.000000  0.666667     12.000000
  0.000000  1.000000  0.000000      3.000000
  0.333333  0.666667  0.000000     24.000000
 -0.500000 -0.166667  0.833333     24.000000
 -0.666667  0.000000  1.000000     12.000000
 
 
 Subroutine IBZKPT_HF returns following result:
 ==============================================
 
 Found    216 k-points in 1st BZ
 the following    216 k-points will be used (e.g. in the exchange kernel)
 Following reciprocal coordinates:   # in IRBZ
  0.000000  0.000000  0.000000    0.00462963   1 t-inv F
  0.166667  0.000000  0.000000    0.00462963   2 t-inv F
  0.333333  0.000000  0.000000    0.00462963   3 t-inv F
  0.500000  0.000000  0.000000    0.00462963   4 t-inv F
  0.166667  0.166667  0.000000    0.00462963   5 t-inv F
  0.333333  0.166667  0.000000    0.00462963   6 t-inv F
  0.500000  0.166667  0.000000    0.00462963   7 t-inv F
 -0.333333  0.166667  0.000000    0.00462963   8 t-inv F
 -0.166667  0.166667  0.000000    0.00462963   9 t-inv F
  0.333333  0.333333  0.000000    0.00462963  10 t-inv F
  0.500000  0.333333  0.000000    0.00462963  11 t-inv F
 -0.333333  0.333333  0.000000    0.00462963  12 t-inv F
  0.500000  0.500000  0.000000    0.00462963  13 t-inv F
  0.500000  0.333333  0.166667    0.00462963  14 t-inv F
 -0.333333  0.333333  0.166667    0.00462963  15 t-inv F
 -0.333333  0.500000  0.166667    0.00462963  16 t-inv F
  0.000000  0.166667  0.000000    0.00462963   2 t-inv F
  0.000000  0.000000  0.166667    0.00462963   2 t-inv F
 -0.166667 -0.166667 -0.166667    0.00462963   2 t-inv F
 -0.166667 -0.000000 -0.000000    0.00462963   2 t-inv F
 -0.000000 -0.166667 -0.000000    0.00462963   2 t-inv F
 -0.000000 -0.000000 -0.166667    0.00462963   2 t-inv F
  0.166667  0.166667  0.166667    0.00462963   2 t-inv F
  0.000000  0.333333  0.000000    0.00462963   3 t-inv F
  0.000000  0.000000  0.333333    0.00462963   3 t-inv F
 -0.333333 -0.333333 -0.333333    0.00462963   3 t-inv F
 -0.333333 -0.000000 -0.000000    0.00462963   3 t-inv F
 -0.000000 -0.333333 -0.000000    0.00462963   3 t-inv F
 -0.000000 -0.000000 -0.333333    0.00462963   3 t-inv F
  0.333333  0.333333  0.333333    0.00462963   3 t-inv F
  0.000000  0.500000  0.000000    0.00462963   4 t-inv F
  0.000000  0.000000  0.500000    0.00462963   4 t-inv F
 -0.500000 -0.500000 -0.500000    0.00462963   4 t-inv F
  0.000000  0.166667  0.166667    0.00462963   5 t-inv F
  0.166667  0.000000  0.166667    0.00462963   5 t-inv F
 -0.166667 -0.166667  0.000000    0.00462963   5 t-inv F
 -0.166667  0.000000 -0.166667    0.00462963   5 t-inv F
  0.000000 -0.166667 -0.166667    0.00462963   5 t-inv F
  0.000000  0.333333  0.166667    0.00462963   6 t-inv F
  0.166667  0.000000  0.333333    0.00462963   6 t-inv F
 -0.166667 -0.166667  0.166667    0.00462963   6 t-inv F
 -0.333333 -0.166667 -0.333333    0.00462963   6 t-inv F
  0.166667  0.333333 -0.000000    0.00462963   6 t-inv F
  0.166667 -0.166667 -0.166667    0.00462963   6 t-inv F
 -0.333333 -0.333333 -0.166667    0.00462963   6 t-inv F
 -0.000000  0.166667  0.333333    0.00462963   6 t-inv F
 -0.166667  0.166667 -0.166667    0.00462963   6 t-inv F
 -0.166667 -0.333333 -0.333333    0.00462963   6 t-inv F
  0.333333 -0.000000  0.166667    0.00462963   6 t-inv F
 -0.333333 -0.166667 -0.000000    0.00462963   6 t-inv F
 -0.000000 -0.333333 -0.166667    0.00462963   6 t-inv F
 -0.166667 -0.000000 -0.333333    0.00462963   6 t-inv F
  0.166667  0.166667 -0.166667    0.00462963   6 t-inv F
  0.333333  0.166667  0.333333    0.00462963   6 t-inv F
 -0.166667 -0.333333  0.000000    0.00462963   6 t-inv F
 -0.166667  0.166667  0.166667    0.00462963   6 t-inv F
  0.333333  0.333333  0.166667    0.00462963   6 t-inv F
  0.000000 -0.166667 -0.333333    0.00462963   6 t-inv F
  0.166667 -0.166667  0.166667    0.00462963   6 t-inv F
  0.166667  0.333333  0.333333    0.00462963   6 t-inv F
 -0.333333  0.000000 -0.166667    0.00462963   6 t-inv F
  0.000000  0.500000  0.166667    0.00462963   7 t-inv F
  0.166667  0.000000  0.500000    0.00462963   7 t-inv F
 -0.166667 -0.166667  0.333333    0.00462963   7 t-inv F
 -0.500000 -0.333333 -0.500000    0.00462963   7 t-inv F
  0.166667  0.500000 -0.000000    0.00462963   7 t-inv F
  0.333333 -0.166667 -0.166667    0.00462963   7 t-inv F
 -0.500000 -0.500000 -0.333333    0.00462963   7 t-inv F
 -0.000000  0.166667  0.500000    0.00462963   7 t-inv F
 -0.166667  0.333333 -0.166667    0.00462963   7 t-inv F
 -0.333333 -0.500000 -0.500000    0.00462963   7 t-inv F
  0.500000 -0.000000  0.166667    0.00462963   7 t-inv F
 -0.500000 -0.166667 -0.000000    0.00462963   7 t-inv F
 -0.000000 -0.500000 -0.166667    0.00462963   7 t-inv F
 -0.166667 -0.000000 -0.500000    0.00462963   7 t-inv F
  0.166667  0.166667 -0.333333    0.00462963   7 t-inv F
  0.500000  0.333333  0.500000    0.00462963   7 t-inv F
 -0.166667 -0.500000  0.000000    0.00462963   7 t-inv F
 -0.333333  0.166667  0.166667    0.00462963   7 t-inv F
  0.500000  0.500000  0.333333    0.00462963   7 t-inv F
  0.000000 -0.166667 -0.500000    0.00462963   7 t-inv F
  0.166667 -0.333333  0.166667    0.00462963   7 t-inv F
  0.333333  0.500000  0.500000    0.00462963   7 t-inv F
 -0.500000  0.000000 -0.166667    0.00462963   7 t-inv F
  0.000000 -0.333333  0.166667    0.00462963   8 t-inv F
  0.166667  0.000000 -0.333333    0.00462963   8 t-inv F
 -0.166667 -0.166667 -0.500000    0.00462963   8 t-inv F
  0.333333  0.500000  0.333333    0.00462963   8 t-inv F
  0.166667 -0.333333 -0.000000    0.00462963   8 t-inv F
 -0.500000 -0.166667 -0.166667    0.00462963   8 t-inv F
  0.333333  0.333333  0.500000    0.00462963   8 t-inv F
 -0.000000  0.166667 -0.333333    0.00462963   8 t-inv F
 -0.166667 -0.500000 -0.166667    0.00462963   8 t-inv F
  0.500000  0.333333  0.333333    0.00462963   8 t-inv F
 -0.333333 -0.000000  0.166667    0.00462963   8 t-inv F
  0.333333 -0.166667 -0.000000    0.00462963   8 t-inv F
 -0.000000  0.333333 -0.166667    0.00462963   8 t-inv F
 -0.166667 -0.000000  0.333333    0.00462963   8 t-inv F
  0.166667  0.166667  0.500000    0.00462963   8 t-inv F
 -0.333333 -0.500000 -0.333333    0.00462963   8 t-inv F
 -0.166667  0.333333  0.000000    0.00462963   8 t-inv F
  0.500000  0.166667  0.166667    0.00462963   8 t-inv F
 -0.333333 -0.333333 -0.500000    0.00462963   8 t-inv F
  0.000000 -0.166667  0.333333    0.00462963   8 t-inv F
  0.166667  0.500000  0.166667    0.00462963   8 t-inv F
 -0.500000 -0.333333 -0.333333    0.00462963   8 t-inv F
  0.333333  0.000000 -0.166667    0.00462963   8 t-inv F
  0.000000 -0.166667  0.166667    0.00462963   9 t-inv F
  0.166667  0.000000 -0.166667    0.00462963   9 t-inv F
 -0.166667 -0.166667 -0.333333    0.00462963   9 t-inv F
  0.166667  0.333333  0.166667    0.00462963   9 t-inv F
  0.166667 -0.166667 -0.000000    0.00462963   9 t-inv F
 -0.333333 -0.166667 -0.166667    0.00462963   9 t-inv F
  0.166667  0.166667  0.333333    0.00462963   9 t-inv F
 -0.000000  0.166667 -0.166667    0.00462963   9 t-inv F
 -0.166667 -0.333333 -0.166667    0.00462963   9 t-inv F
  0.333333  0.166667  0.166667    0.00462963   9 t-inv F
 -0.166667 -0.000000  0.166667    0.00462963   9 t-inv F
  0.000000  0.333333  0.333333    0.00462963  10 t-inv F
  0.333333  0.000000  0.333333    0.00462963  10 t-inv F
 -0.333333 -0.333333  0.000000    0.00462963  10 t-inv F
 -0.333333 -0.000000 -0.333333    0.00462963  10 t-inv F
  0.000000 -0.333333 -0.333333    0.00462963  10 t-inv F
  0.000000  0.500000  0.333333    0.00462963  11 t-inv F
  0.333333  0.000000  0.500000    0.00462963  11 t-inv F
 -0.333333 -0.333333  0.166667    0.00462963  11 t-inv F
 -0.500000 -0.166667 -0.500000    0.00462963  11 t-inv F
  0.333333  0.500000 -0.000000    0.00462963  11 t-inv F
  0.166667 -0.333333 -0.333333    0.00462963  11 t-inv F
 -0.500000 -0.500000 -0.166667    0.00462963  11 t-inv F
 -0.000000  0.333333  0.500000    0.00462963  11 t-inv F
 -0.333333  0.166667 -0.333333    0.00462963  11 t-inv F
 -0.166667 -0.500000 -0.500000    0.00462963  11 t-inv F
  0.500000 -0.000000  0.333333    0.00462963  11 t-inv F
 -0.500000 -0.333333 -0.000000    0.00462963  11 t-inv F
 -0.000000 -0.500000 -0.333333    0.00462963  11 t-inv F
 -0.333333 -0.000000 -0.500000    0.00462963  11 t-inv F
  0.333333  0.333333 -0.166667    0.00462963  11 t-inv F
  0.500000  0.166667  0.500000    0.00462963  11 t-inv F
 -0.333333 -0.500000  0.000000    0.00462963  11 t-inv F
 -0.166667  0.333333  0.333333    0.00462963  11 t-inv F
  0.500000  0.500000  0.166667    0.00462963  11 t-inv F
  0.000000 -0.333333 -0.500000    0.00462963  11 t-inv F
  0.333333 -0.166667  0.333333    0.00462963  11 t-inv F
  0.166667  0.500000  0.500000    0.00462963  11 t-inv F
 -0.500000  0.000000 -0.333333    0.00462963  11 t-inv F
  0.000000 -0.333333  0.333333    0.00462963  12 t-inv F
  0.333333  0.000000 -0.333333    0.00462963  12 t-inv F
 -0.333333 -0.333333 -0.666667    0.00462963  12 t-inv F
  0.333333  0.666667  0.333333    0.00462963  12 t-inv F
  0.333333 -0.333333 -0.000000    0.00462963  12 t-inv F
 -0.666667 -0.333333 -0.333333    0.00462963  12 t-inv F
  0.333333  0.333333  0.666667    0.00462963  12 t-inv F
 -0.000000  0.333333 -0.333333    0.00462963  12 t-inv F
 -0.333333 -0.666667 -0.333333    0.00462963  12 t-inv F
  0.666667  0.333333  0.333333    0.00462963  12 t-inv F
 -0.333333 -0.000000  0.333333    0.00462963  12 t-inv F
  0.000000  0.500000  0.500000    0.00462963  13 t-inv F
  0.500000  0.000000  0.500000    0.00462963  13 t-inv F
  0.166667  0.500000  0.333333    0.00462963  14 t-inv F
  0.333333  0.166667  0.500000    0.00462963  14 t-inv F
 -0.333333 -0.166667  0.166667    0.00462963  14 t-inv F
 -0.500000 -0.166667 -0.333333    0.00462963  14 t-inv F
 -0.166667  0.333333  0.166667    0.00462963  14 t-inv F
  0.166667  0.333333 -0.166667    0.00462963  14 t-inv F
  0.166667 -0.166667 -0.333333    0.00462963  14 t-inv F
 -0.333333 -0.166667 -0.500000    0.00462963  14 t-inv F
 -0.333333 -0.500000 -0.166667    0.00462963  14 t-inv F
  0.166667 -0.166667  0.333333    0.00462963  14 t-inv F
  0.166667 -0.333333 -0.166667    0.00462963  14 t-inv F
 -0.166667  0.166667  0.333333    0.00462963  14 t-inv F
 -0.333333  0.166667 -0.166667    0.00462963  14 t-inv F
 -0.500000 -0.333333 -0.166667    0.00462963  14 t-inv F
 -0.166667 -0.333333 -0.500000    0.00462963  14 t-inv F
  0.333333  0.166667 -0.166667    0.00462963  14 t-inv F
 -0.166667  0.166667 -0.333333    0.00462963  14 t-inv F
  0.333333 -0.166667  0.166667    0.00462963  14 t-inv F
 -0.166667 -0.333333  0.166667    0.00462963  14 t-inv F
 -0.166667 -0.500000 -0.333333    0.00462963  14 t-inv F
  0.500000  0.166667  0.333333    0.00462963  14 t-inv F
  0.333333  0.500000  0.166667    0.00462963  14 t-inv F
  0.166667  0.333333  0.500000    0.00462963  14 t-inv F
  0.166667 -0.333333  0.333333    0.00462963  15 t-inv F
  0.333333  0.166667 -0.333333    0.00462963  15 t-inv F
 -0.333333 -0.166667 -0.666667    0.00462963  15 t-inv F
  0.333333  0.666667  0.500000    0.00462963  15 t-inv F
 -0.166667 -0.500000  0.166667    0.00462963  15 t-inv F
  0.166667 -0.500000 -0.166667    0.00462963  15 t-inv F
 -0.666667 -0.166667 -0.333333    0.00462963  15 t-inv F
  0.500000  0.666667  0.333333    0.00462963  15 t-inv F
  0.500000  0.333333  0.666667    0.00462963  15 t-inv F
  0.166667 -0.166667 -0.500000    0.00462963  15 t-inv F
 -0.666667 -0.333333 -0.166667    0.00462963  15 t-inv F
 -0.166667  0.166667 -0.500000    0.00462963  15 t-inv F
 -0.333333 -0.666667 -0.166667    0.00462963  15 t-inv F
  0.333333  0.500000  0.666667    0.00462963  15 t-inv F
  0.666667  0.500000  0.333333    0.00462963  15 t-inv F
 -0.500000  0.166667 -0.166667    0.00462963  15 t-inv F
 -0.166667 -0.666667 -0.333333    0.00462963  15 t-inv F
 -0.500000 -0.166667  0.166667    0.00462963  15 t-inv F
 -0.166667 -0.333333 -0.666667    0.00462963  15 t-inv F
  0.666667  0.333333  0.500000    0.00462963  15 t-inv F
 -0.333333  0.166667  0.333333    0.00462963  15 t-inv F
  0.333333 -0.333333  0.166667    0.00462963  15 t-inv F
  0.166667  0.333333 -0.333333    0.00462963  15 t-inv F
  0.166667 -0.333333  0.500000    0.00462963  16 t-inv F
  0.500000  0.166667 -0.333333    0.00462963  16 t-inv F
 -0.500000 -0.333333 -0.833333    0.00462963  16 t-inv F
  0.333333  0.833333  0.500000    0.00462963  16 t-inv F
 -0.166667 -0.500000  0.333333    0.00462963  16 t-inv F
  0.333333 -0.500000 -0.166667    0.00462963  16 t-inv F
  0.500000  0.833333  0.333333    0.00462963  16 t-inv F
  0.500000  0.333333  0.833333    0.00462963  16 t-inv F
 -0.833333 -0.500000 -0.333333    0.00462963  16 t-inv F
 -0.166667  0.333333 -0.500000    0.00462963  16 t-inv F
 -0.333333 -0.833333 -0.500000    0.00462963  16 t-inv F


--------------------------------------------------------------------------------------------------------




 Dimension of arrays:
   k-points           NKPTS =     16   k-points in BZ     NKDIM =    216   number of bands    NBANDS=     64
   number of dos      NEDOS =    301   number of ions     NIONS =      2
   non local maximal  LDIM  =      6   non local SUM 2l+1 LMDIM =     18
   total plane-waves  NPLWV =   8000
   max r-space proj   IRMAX =      1   max aug-charges    IRDMAX=  10010
   dimension x,y,z NGX =    20 NGY =   20 NGZ =   20
   dimension x,y,z NGXF=    40 NGYF=   40 NGZF=   40
   support grid    NGXF=    40 NGYF=   40 NGZF=   40
   ions per type =               2
   NGX,Y,Z   is equivalent  to a cutoff of   8.66,  8.66,  8.66 a.u.
   NGXF,Y,Z  is equivalent  to a cutoff of  17.32, 17.32, 17.32 a.u.

 SYSTEM =  Si G0W0                                 
 POSCAR =  cd Si                                   

 Startparameter for this run:
   NWRITE =      2    write-flag & timer
   PREC   = normal    normal or accurate (medium, high low for compatibility)
   ISTART =      1    job   : 0-new  1-cont  2-samecut
   ICHARG =      0    charge: 1-file 2-atom 10-const
   ISPIN  =      1    spin polarized calculation?
   LNONCOLLINEAR =      F non collinear calculations
   LSORBIT =      F    spin-orbit coupling
   INIWAV =      1    electr: 0-lowe 1-rand  2-diag
   LASPH  =      F    aspherical Exc in radial PAW
 Electronic Relaxation 1
   ENCUT  =  400.0 eV  29.40 Ry    5.42 a.u.   6.26  6.26  6.26*2*pi/ulx,y,z
   ENINI  =  400.0     initial cutoff
   ENAUG  =  413.0 eV  augmentation charge cutoff
   NELM   =     60;   NELMIN=  2; NELMDL=  0     # of ELM steps 
   EDIFF  = 0.1E-03   stopping-criterion for ELM
   LREAL  =      F    real-space projection
   NLSPLINE    = F    spline interpolate recip. space projectors
   LCOMPAT=      F    compatible to vasp.4.4
   GGA_COMPAT  = T    GGA compatible to vasp.4.4-vasp.4.6
   LMAXPAW     = -100 max onsite density
   LMAXMIX     =    2 max onsite mixed and CHGCAR
   VOSKOWN=      0    Vosko Wilk Nusair interpolation
   ROPT   =    0.00000
 Ionic relaxation
   EDIFFG = 0.1E-02   stopping-criterion for IOM
   NSW    =      0    number of steps for IOM
   NBLOCK =      1;   KBLOCK =      1    inner block; outer block 
   IBRION =     -1    ionic relax: 0-MD 1-quasi-New 2-CG
   NFREE  =      0    steps in history (QN), initial steepest desc. (CG)
   ISIF   =      0    stress and relaxation
   IWAVPR =     10    prediction:  0-non 1-charg 2-wave 3-comb
   ISYM   =      3    0-nonsym 1-usesym 2-fastsym
   LCORR  =      T    Harris-Foulkes like correction to forces

   POTIM  = 0.5000    time-step for ionic-motion
   TEIN   =    0.0    initial temperature
   TEBEG  =    0.0;   TEEND  =   0.0 temperature during run
   SMASS  =  -3.00    Nose mass-parameter (am)
   estimated Nose-frequenzy (Omega)   =  0.10E-29 period in steps = 0.13E+47 mass=  -0.337E-27a.u.
   SCALEE = 1.0000    scale energy and forces
   NPACO  =    256;   APACO  = 10.0  distance and # of slots for P.C.
   PSTRESS=    0.0 pullay stress

  Mass of Ions in am
   POMASS =  28.09
  Ionic Valenz
   ZVAL   =   4.00
  Atomic Wigner-Seitz radii
   RWIGS  =  -1.00
  virtual crystal weights 
   VCA    =   1.00
   NELECT =       8.0000    total number of electrons
   NUPDOWN=      -1.0000    fix difference up-down

 DOS related values:
   EMIN   =  10.00;   EMAX   =-10.00  energy-range for DOS
   EFERMI =   0.00;   METHOD = LEGACY      
   ISMEAR =     0;   SIGMA  =   0.05  broadening in eV -4-tet -1-fermi 0-gaus
   EFERMI_NEDOS =   21; number of points for ismear=-14 and -15

 Electronic relaxation 2 (details)
   IALGO  =     38    algorithm
   LDIAG  =      T    sub-space diagonalisation (order eigenvalues)
   LSUBROT=      F    optimize rotation matrix (better conditioning)
   TURBO    =      0    0=normal 1=particle mesh
   IRESTART =      0    0=no restart 2=restart with 2 vectors
   NREBOOT  =      0    no. of reboots
   NMIN     =      0    reboot dimension
   EREF     =   0.00    reference energy to select bands
   IMIX   =      4    mixing-type and parameters
     AMIX     =   0.40;   BMIX     =  1.00
     AMIX_MAG =   1.60;   BMIX_MAG =  1.00
     AMIN     =   0.10
     WC   =   100.;   INIMIX=   1;  MIXPRE=   1;  MAXMIX= -45

 Intra band minimization:
   WEIMIN = 0.0000     energy-eigenvalue tresh-hold
   EBREAK =  0.39E-06  absolut break condition
   DEPER  =   0.30     relativ break condition  

   TIME   =   0.40     timestep for ELM

  volume/ion in A,a.u.               =      20.01       135.05
  Fermi-wavevector in a.u.,A,eV,Ry     =   0.957176  1.808800 12.465458  0.916185
  Thomas-Fermi vector in A             =   2.086170

 Write flags
   LWAVE        =      T    write WAVECAR
   LDOWNSAMPLE  =      F    k-point downsampling of WAVECAR
   LCHARG       =      T    write CHGCAR
   LVTOT        =      F    write LOCPOT, total local potential
   LVHAR        =      F    write LOCPOT, Hartree potential only
   WRT_POTENTIAL= false  ! write potential to hdf5 file
   LELF         =      F    write electronic localiz. function (ELF)
   LORBIT       =      0    0 simple, 1 ext, 2 COOP (PROOUT), +10 PAW based schemes


 Python interface
   PLUGINS active      =      F    recompile with -DPLUGINS to activate

 Dipole corrections
   LMONO      =      F    monopole corrections only (constant potential shift)
   LDIPOL     =      F    correct potential (dipole corrections)
   IDIPOL     =      0    1-x, 2-y, 3-z, 4-all directions 
   EPSILON    =  1.0000000 bulk dielectric constant
   LVACPOTAV  =      F  vacuum potentials using an averaging scheme for the charge density
   VACPOTFLAT =  0.1000000 required flatness to determine vacuum potential

Coulomb truncation method
  LTRUNCATE          =      F  Coulomb kernel truncation to be used
  IDIMENSIONALITY    =      3  Dimensionality of cutoff (0 molecules / 2 surfaces)
  ISURFACE           =     -1  Direction of surface normal
  LCOARSEN           =      F  Coarsen the charge grid before padding, preferred


 Exchange correlation treatment:
   GGA     = PE    functional components
   XC_C    = 1    coefficients multiplying the functional components
   LIBXC   =     F    Libxc                    
   VOSKOWN =     0    Vosko Wilk Nusair interpolation
   EXXOEP  =     0    0=HF, 1=EXX-LHF (local Hartree Fock) 2=EXX OEP
   LHFCALC =     T    Hartree Fock is set to
   LSYMGRAD=     F    symmetrize gradient (conserves proper symmetry)
   PRECFOCK=normal    Normal, Fast or Accurate (Low or Medium for compatibility)
   LRHFCALC=     F    long range Hartree Fock
   LRSCOR  =     F    long range correlation only (use DFT for short range part)
   LTHOMAS =     F    Thomas Fermi screening in HF
   LMODELHF=     F    short range full HF, long range fraction AEXX
   FOCKCORR=     2    mode to apply convergence corrections
   LFOCKACE=     T    use Adeptively-Compressed-Exchange operator
   ENCUT4O =  -1.0   cutoff for four orbital integrals eV
   LMAXFOCK=     4    L truncation for augmentation on plane wave grid
   LMAXFOCKAE=   4    L truncation for all-electron charge restoration on plane wave grid
   NMAXFOCKAE=   1    number of basis functions for all-electron charge restoration
   LFOCKAEDFT=     F  apply the AE augmentation even for DFT
   NKREDX  =     1    reduce k-point grid by
   NKREDY  =     1    reduce k-point grid by
   NKREDZ  =     1    reduce k-point grid by
   SHIFTRED=     F    shift reduced grid of Gamma
   HFKIDENT=     F    idential grid for each k-point
   ODDONLY =     F    use only odd q-grid points
   EVENONLY=     F    use only even q-grid points
   HFALPHA =   -1.0000 decay constant for conv. correction
   MCALPHA =    0.0000 extent of test-charge in conv. correction in multipole expansion
   AEXX    =    1.0000 exact exchange contribution
   HFSCREEN=    0.0000 screening length (either q_TF or 0.3 A-1)
   HFSCREENC=   0.0000 screening length for correlation (either q_TF or 0.3 A-1)
   HFRCUT  =    0.0000 spherical cutoff for potential kernel
   ALDAX   =    0.0000 LDA exchange part
   AGGAX   =    0.0000 GGA exchange part
   AMGGAX  =    0.0000 meta-GGA exchange part
   ALDAC   =    0.0000 LDA correlation
   AGGAC   =    0.0000 GGA correlation
   AMGGAC  =    0.0000 meta-GGA correlation
   ENCUTFOCK=  -1.0 apply spherical cutoff to Coloumb kernel
   NBANDSGWLOW=     1    first orbital included in HF term
   NBLOCK_FOCK=    16    blocking factor in FOCK_ACC

 Parameters of functionals:
   PE:
     No parameter

 Van der Waals corrections
   IVDW    =     0    specifies the selected vdW correction

 Linear response parameters
   LEPSILON=     F    determine dielectric tensor
   LRPA    =     F    only Hartree local field effects (RPA)
   LNABLA  =     F    use nabla operator in PAW spheres
   LVEL    =     F    velocity operator in full k-point grid
   CSHIFT  =0.1000    complex shift for real part using Kramers Kronig
   OMEGAMAX=  -1.0    maximum frequency
   DEG_THRESHOLD= 0.2000000E-02 threshold for treating states as degnerate
   RTIME   =   -0.100 relaxation time in fs
  (WPLASMAI=    0.000 imaginary part of plasma frequency in eV, 0.658/RTIME)
   DFIELD  = 0.0000000 0.0000000 0.0000000 field for delta impulse in time

  Optional k-point grid parameters
   LKPOINTS_OPT  =     F    use optional k-point grid
   KPOINTS_OPT_MODE=     1    mode for optional k-point grid

 Orbital magnetization related:
   ORBITALMAG=     F  switch on orbital magnetization
   LCHIMAG   =     F  perturbation theory with respect to B field
   DQ        =  0.001000  dq finite difference perturbation B field
   LLRAUG    =     F  two centre corrections for induced B field
   LBONE     =     F  B-component reconstruction in AE one-centre
   LVGVCALC  =     T  calculate vGv susceptibility
   LVGVAPPL  =     F  apply vGv susceptibility instead of pGv for G=0

 Response functions by sum over occupied states:
   ALGO                =  EVGW0   selected many-body perturbation algorithm
   LALL_IN_ONE         =     F    all in one mode selected?
   IALL_IN_ONE         =    -1    all in one mode id
   NBANDS_WAVE         =    -1    number of bands written to file
   LFINITE_TEMPERATURE =     F    use finite temperature formalism
   LFXC                =     F    include DFT xc kernel in TD-HF and W
   LADDER              =     F    particle hole ladder diagrams for BSE/TD-HF and W (Nano-quanta)
   LRPAFORCE           =     F    calculate RPA forces
   LHARTREE            =     T    include Hartree terms (bubbles-RPA) in BSE/TD-HF
   IBSE                =     2    BSE modus: 0 exact, 1 time-evolution (store matrix), 10 time-evolution (implicit)
   KPOINT              =    -1   0   0   0    k-point index at which BSE equation is solved (and G at which response is eval.)
   LTRIPLET            =     F    triplet instead of singlet excitation (BSE only)
   LRSRPA              =     F    range separated RPA (total - short) in ACFDT
   LTCTC               =     F    use test-charge test-charge for self-energy (with ALGO=QPBSE)
   LTCTE               =     F    use test-charge test-electron dielectric function
   LTETE               =     F    use test-electron test-electron dielectric function
   LFXCEPS             =     F    determine f_xc=epsilon-1/Xi Sharma and Gross kernel
   LFXHEG              =     F    model exchange using f_x(G,k_F) from free electron gas
   NATURALO            =     2    0 natural orbitals, 1 only virtual, 2 only occupied-virtual rotation
   LHOLEGF             =     F    use holes in self-consistent GW 
   L2ORDER             =     F    2nd order terms only
   LDMP1               =     F    first order term in ACFDT routine is calculated
   LMP2LT              =     F    use LT MP2
   LSMP2LT             =     F    use stochastic LT MP2
   LGWLF               =     F    use W potentials for exchange like diagrams
   ENCUTGW             = 266.7    cutoff for response function in eV
   ENCUTGWSOFT         = 213.3    soft cutoff for Coulomb kernel in GW response function in eV
   ENCUTLF             =  -1.0    cutoff for local field effects
   ESF_SPLINES         =     F    tricubic spline interpolation of RPA/ACFDT electronic structure factor
   ESF_CONV            =   0.0    convergence threshhold for tricubic spline interpolation
   ESF_NINTER          =    15    maximum refinement factor for tricubic spline interpolation
   LMAXMP2             =    -1    maximum L for one center terms
   SCISSOR             =   0.0    scissor correction
   NOMEGA              =    50    number of frequencies
   NOMEGAR             =    50    number of frequencies along real axis
   NBANDSGW            =    -1    number of bands for which selfenergy shift is calculated
   NBANDSGWLOW         =     1    lowest band included in GW (to exclude core correlation)
   NBANDSO             =    -1    number of bands for electron-hole treatment (occupied)
   NBANDSV             =    -1    number of bands for electron-hole treatment (virtual)
   NELMGW              =     1    number of iterations in solving QP/BSE equation
   NELMHF              =     1    number of iterations in the inner HF iteration
   DIM                 =     3    dimensionality of system (0=0D molecules, 3=3D)
   IEPSILON            =     4    cartesion direction for which dielectric function is calculated (4=all)
   ANTIRES             =     0    antiresonant part (0) no TDA (1) w=0 exact (2) accurate
   OMEGAMAX            = -30.0    maximum frequency
   OMEGAMIN            = -30.0    minimum frequency
   OMEGATL             =-200.0    maximum frequency of tail
   OMEGAGRID           =     0    grid type (0 default)
   CSHIFT              =  -0.1    complex shift used in evaluation of response functions
   LSELFENERGY         =     F    calculate selfenergy instead of QP shifts
   LSPECTRAL           =     T    use spectral functions                   
   LSPECTRALGW         =     F    use spectral functions to calculate int dz G(w-z) W(z) (more accurate)
   LSINGLES            =     F    calculate the singles contribution to the correlation energy
   LFERMIGW            =     F    update Fermi-energy in the Greens function

   ODDONLYGW           =     F    avoid all even points for polarizability 
   EVENONLYGW          =     F    avoid all odd  points for polarizability 
   NKREDLFX            =     1    NKREDLFY  =   1   NKREDLFZ  =   1

   TELESCOPE           =     0    use telescope k-point sampling
   NTAUPAR             =    -1    number of TAU groups used in imaginary time calculation
   NOMEGAPAR           =    -1    number of OMEGA groups used in imaginary frequency calculation
   DAMP_NEWTON         =0.8000    damping for Newton step for position update when RPA forces are used

 Random number generation:
   RANDOM_GENERATOR = DEFAULT
   PCG_SEED         = not used


--------------------------------------------------------------------------------------------------------


 Static calculation
 charge density and potential will be updated during run
 non-spin polarized calculation
 Variant of blocked Davidson
 Davidson routine will perform the subspace rotation
 perform sub-space diagonalisation
    after iterative eigenvector-optimisation
 modified Broyden-mixing scheme, WC =      100.0
 initial mixing is a Kerker type mixing with AMIX =  0.4000 and BMIX =      1.0000
 Hartree-type preconditioning will be used
 using additional bands           60
 reciprocal scheme for non local part
 use partial core corrections
 calculate Harris-corrections to forces   (improved forces if not selfconsistent)
 use gradient corrections 
 use of overlap-Matrix (Vanderbilt PP)
 Gauss-broadening in eV      SIGMA  =   0.05


--------------------------------------------------------------------------------------------------------


  energy-cutoff  :      400.00
  volume of cell :       40.03
      direct lattice vectors                 reciprocal lattice vectors
     2.715000000  2.715000000  0.000000000     0.184162063  0.184162063 -0.184162063
     0.000000000  2.715000000  2.715000000    -0.184162063  0.184162063  0.184162063
     2.715000000  0.000000000  2.715000000     0.184162063 -0.184162063  0.184162063

  length of vectors
     3.839589822  3.839589822  3.839589822     0.318978049  0.318978049  0.318978049



 old parameters found on file WAVECAR:
  energy-cutoff  :      400.00
  volume of cell :       40.03
      direct lattice vectors                 reciprocal lattice vectors
     2.715000000  2.715000000  0.000000000     0.184162063  0.184162063 -0.184162063
     0.000000000  2.715000000  2.715000000    -0.184162063  0.184162063  0.184162063
     2.715000000  0.000000000  2.715000000     0.184162063 -0.184162063  0.184162063

  length of vectors


 k-points in units of 2pi/SCALE and weight: k mesh                                  
   0.00000000  0.00000000  0.00000000       0.005
   0.16666667  0.16666667 -0.16666667       0.037
   0.33333333  0.33333333 -0.33333333       0.037
   0.50000000  0.50000000 -0.50000000       0.019
   0.00000000  0.33333333  0.00000000       0.028
   0.16666667  0.50000000 -0.16666667       0.111
   0.33333333  0.66666667 -0.33333333       0.111
  -0.50000000 -0.16666667  0.50000000       0.111
  -0.33333333  0.00000000  0.33333333       0.056
   0.00000000  0.66666667  0.00000000       0.028
   0.16666667  0.83333333 -0.16666667       0.111
  -0.66666667  0.00000000  0.66666667       0.056
   0.00000000  1.00000000  0.00000000       0.014
   0.33333333  0.66666667  0.00000000       0.111
  -0.50000000 -0.16666667  0.83333333       0.111
  -0.66666667  0.00000000  1.00000000       0.056

 k-points in reciprocal lattice and weights: k mesh                                  
   0.00000000  0.00000000  0.00000000       0.005
   0.16666667  0.00000000  0.00000000       0.037
   0.33333333  0.00000000  0.00000000       0.037
   0.50000000  0.00000000  0.00000000       0.019
   0.16666667  0.16666667  0.00000000       0.028
   0.33333333  0.16666667  0.00000000       0.111
   0.50000000  0.16666667  0.00000000       0.111
  -0.33333333  0.16666667  0.00000000       0.111
  -0.16666667  0.16666667  0.00000000       0.056
   0.33333333  0.33333333  0.00000000       0.028
   0.50000000  0.33333333  0.00000000       0.111
  -0.33333333  0.33333333  0.00000000       0.056
   0.50000000  0.50000000  0.00000000       0.014
   0.50000000  0.33333333  0.16666667       0.111
  -0.33333333  0.33333333  0.16666667       0.111
  -0.33333333  0.50000000  0.16666667       0.056

 position of ions in fractional coordinates (direct lattice) 
   0.00000000  0.00000000  0.00000000
   0.25000000  0.25000000  0.25000000

 position of ions in cartesian coordinates  (Angst):
   0.00000000  0.00000000  0.00000000
   1.35750000  1.35750000  1.35750000



--------------------------------------------------------------------------------------------------------


 k-point     1 :   0.0000 0.0000 0.0000  plane waves:     725
 k-point     2 :   0.1667 0.0000 0.0000  plane waves:     718
 k-point     3 :   0.3333 0.0000 0.0000  plane waves:     745
 k-point     4 :   0.5000 0.0000 0.0000  plane waves:     718
 k-point     5 :   0.1667 0.1667 0.0000  plane waves:     709
 k-point     6 :   0.3333 0.1667 0.0000  plane waves:     731
 k-point     7 :   0.5000 0.1667 0.0000  plane waves:     732
 k-point     8 :  -0.3333 0.1667 0.0000  plane waves:     726
 k-point     9 :  -0.1667 0.1667 0.0000  plane waves:     732
 k-point    10 :   0.3333 0.3333 0.0000  plane waves:     717
 k-point    11 :   0.5000 0.3333 0.0000  plane waves:     729
 k-point    12 :  -0.3333 0.3333 0.0000  plane waves:     718
 k-point    13 :   0.5000 0.5000 0.0000  plane waves:     740
 k-point    14 :   0.5000 0.3333 0.1667  plane waves:     728
 k-point    15 :  -0.3333 0.3333 0.1667  plane waves:     730
 k-point    16 :  -0.3333 0.5000 0.1667  plane waves:     718

 maximum and minimum number of plane-waves per node :       745      709

 maximum number of plane-waves:       745
 maximum index in each direction: 
   IXMAX=    6   IYMAX=    6   IZMAX=    6
   IXMIN=   -6   IYMIN=   -6   IZMIN=   -6


 serial   3D FFT for wavefunctions
 parallel 3D FFT for charge:
    minimum data exchange during FFTs selected (reduces bandwidth)


 Radii for the augmentation spheres in the non-local exchange
 for species   1 augmentation radius   1.124 (default was   1.124)
 error exchange integrals (PW-AE in eV) (mean, max) 1.11910.846 density error[0,qmax] 0.0476
 Maximum index for augmentation-charges in exchange          232
  SETUP_FOCK is finished

 total amount of memory used by VASP MPI-rank0    42922. kBytes
=======================================================================

   base                                    :      30000. kBytes
   nonl-proj                               :       1742. kBytes
   fftplans                                :       1158. kBytes
   grid                                    :       1913. kBytes
   one-center                              :         31. kBytes
   HF                                      :        129. kBytes
   nonlr-proj                              :       1543. kBytes
   wavefun                                 :       6406. kBytes

     INWAV:  cpu time      0.0033: real time      0.0034
 Broyden mixing: mesh for mixing (old mesh)
   NGX = 13   NGY = 13   NGZ = 13
  (NGX  = 40   NGY  = 40   NGZ  = 40)
  gives a total of   2197 points

 charge density for first step will be calculated from the start-wavefunctions


--------------------------------------------------------------------------------------------------------


 Maximum index for augmentation-charges         4817 (set IRDMAX)


--------------------------------------------------------------------------------------------------------


 initial charge from wavefunction
 First call to EWALD:  gamma=   0.518
 Maximum number of real-space cells   3x   3x   3
 Maximum number of reciprocal cells   3x   3x   3

    FEWALD:  cpu time      0.0002: real time      0.0002
 -----------------------------------------------------------------------------
|                                                                             |
|           W    W    AA    RRRRR   N    N  II  N    N   GGGG   !!!           |
|           W    W   A  A   R    R  NN   N  II  NN   N  G    G  !!!           |
|           W    W  A    A  R    R  N N  N  II  N N  N  G       !!!           |
|           W WW W  AAAAAA  RRRRR   N  N N  II  N  N N  G  GGG   !            |
|           WW  WW  A    A  R   R   N   NN  II  N   NN  G    G                |
|           W    W  A    A  R    R  N    N  II  N    N   GGGG   !!!           |
|                                                                             |
|     Failed to automatically set available memory for this job. Please       |
|     set MAXMEM by hand, because the default value of 2800 MB might be       |
|     grossly inefficient.                                                    |
|                                                                             |
 -----------------------------------------------------------------------------


 The Fermi energy was updated, please check that it is located mid-gap
 values below the HOMO (VB) or above the LUMO (CB) will cause erroneous energies
 E-fermi :   5.4147

 Response functions by sum over occupied states:
 ===============================================
   NOMEGA  =    50    number of frequencies
   NOMEGAR =    50    number of frequencies along real axis
   OMEGAMAX=  13.09   maximum frequency
   OMEGAMIN=   0.51   minimum frequency
   OMEGATL = 170.18   maximum frequency of tail
   CSHIFT  =  0.340   complex shift used in evaluation of response functions


 Energies iw= 
 ============
    0.000    0.000    0.434    0.000    0.866    0.000    1.295    0.000
    1.720    0.000    2.138    0.000    2.551    0.000    2.956    0.000
    3.354    0.000    3.745    0.000    4.128    0.000    4.506    0.000
    4.878    0.000    5.246    0.000    5.610    0.000    5.971    0.000
    6.331    0.000    6.691    0.000    7.052    0.000    7.417    0.000
    7.786    0.000    8.161    0.000    8.545    0.000    8.939    0.000
    9.346    0.000    9.769    0.000   10.210    0.000   10.673    0.000
   11.163    0.000   11.685    0.000   12.243    0.000   12.846    0.000
   13.501    0.000   14.220    0.000   15.015    0.000   15.903    0.000
   16.906    0.000   18.050    0.000   19.375    0.000   20.928    0.000
   22.780    0.000   25.031    0.000   27.829    0.000   31.404    0.000
   36.130    0.000   42.664    0.000   52.273    0.000   67.754    0.000
   96.742    0.000  170.178    0.000


IMPORTANT INFORMATION: All symmetrisations will be switched off!
NOSYMM: (Re-)initialisation of all symmetry stuff for point group C_1.


 KPOINTS: k mesh                                  

Automatic generation of k-mesh.
 Grid dimensions read from file:
 generate k-points for:    6    6    6

 Generating k-lattice:

  Cartesian coordinates                     Fractional coordinates (reciprocal lattice)
     0.030693677  0.030693677 -0.030693677     0.166666667  0.000000000  0.000000000
    -0.030693677  0.030693677  0.030693677     0.000000000  0.166666667 -0.000000000
     0.030693677 -0.030693677  0.030693677    -0.000000000 -0.000000000  0.166666667

  Length of vectors
     0.053163008  0.053163008  0.053163008

  Shift w.r.t. Gamma in fractional coordinates (k-lattice)
     0.000000000  0.000000000  0.000000000

 
 Subroutine IBZKPT returns following result:
 ===========================================
 
 Found    216 irreducible k-points:
 
 Following reciprocal coordinates:
            Coordinates               Weight
  0.000000  0.000000  0.000000      1.000000
  0.166667  0.000000  0.000000      1.000000
 -0.166667  0.000000  0.000000      1.000000
  0.000000  0.166667  0.000000      1.000000
  0.000000 -0.166667  0.000000      1.000000
  0.000000  0.000000  0.166667      1.000000
  0.000000  0.000000 -0.166667      1.000000
  0.166667  0.166667  0.166667      1.000000
 -0.166667 -0.166667 -0.166667      1.000000
  0.333333  0.000000  0.000000      1.000000
 -0.333333  0.000000  0.000000      1.000000
  0.000000  0.333333  0.000000      1.000000
  0.000000 -0.333333  0.000000      1.000000
  0.000000  0.000000  0.333333      1.000000
  0.000000  0.000000 -0.333333      1.000000
  0.333333  0.333333  0.333333      1.000000
 -0.333333 -0.333333 -0.333333      1.000000
  0.500000  0.000000  0.000000      1.000000
  0.000000  0.500000  0.000000      1.000000
  0.000000  0.000000  0.500000      1.000000
  0.500000  0.500000  0.500000      1.000000
  0.166667  0.166667  0.000000      1.000000
 -0.166667 -0.166667  0.000000      1.000000
  0.000000  0.166667  0.166667      1.000000
  0.000000 -0.166667 -0.166667      1.000000
  0.166667  0.000000  0.166667      1.000000
 -0.166667  0.000000 -0.166667      1.000000
  0.333333  0.166667  0.000000      1.000000
 -0.333333 -0.166667  0.000000      1.000000
  0.000000  0.333333  0.166667      1.000000
  0.000000 -0.333333 -0.166667      1.000000
  0.166667  0.000000  0.333333      1.000000
 -0.166667  0.000000 -0.333333      1.000000
  0.166667  0.166667 -0.166667      1.000000
 -0.166667 -0.166667  0.166667      1.000000
  0.333333  0.166667  0.333333      1.000000
 -0.333333 -0.166667 -0.333333      1.000000
  0.166667  0.333333  0.000000      1.000000
 -0.166667 -0.333333  0.000000      1.000000
  0.166667 -0.166667 -0.166667      1.000000
 -0.166667  0.166667  0.166667      1.000000
  0.333333  0.333333  0.166667      1.000000
 -0.333333 -0.333333 -0.166667      1.000000
  0.000000  0.166667  0.333333      1.000000
  0.000000 -0.166667 -0.333333      1.000000
 -0.166667  0.166667 -0.166667      1.000000
  0.166667 -0.166667  0.166667      1.000000
  0.166667  0.333333  0.333333      1.000000
 -0.166667 -0.333333 -0.333333      1.000000
  0.333333  0.000000  0.166667      1.000000
 -0.333333  0.000000 -0.166667      1.000000
  0.500000  0.166667  0.000000      1.000000
  0.500000 -0.166667  0.000000      1.000000
  0.000000  0.500000  0.166667      1.000000
  0.000000  0.500000 -0.166667      1.000000
  0.166667  0.000000  0.500000      1.000000
 -0.166667  0.000000  0.500000      1.000000
  0.166667  0.166667 -0.333333      1.000000
 -0.166667 -0.166667  0.333333      1.000000
  0.500000  0.333333  0.500000      1.000000
  0.500000 -0.333333  0.500000      1.000000
  0.166667  0.500000  0.000000      1.000000
 -0.166667  0.500000  0.000000      1.000000
  0.333333 -0.166667 -0.166667      1.000000
 -0.333333  0.166667  0.166667      1.000000
  0.500000  0.500000  0.333333      1.000000
  0.500000  0.500000 -0.333333      1.000000
  0.000000  0.166667  0.500000      1.000000
  0.000000 -0.166667  0.500000      1.000000
 -0.166667  0.333333 -0.166667      1.000000
  0.166667 -0.333333  0.166667      1.000000
  0.333333  0.500000  0.500000      1.000000
 -0.333333  0.500000  0.500000      1.000000
  0.500000  0.000000  0.166667      1.000000
  0.500000  0.000000 -0.166667      1.000000
 -0.333333  0.166667  0.000000      1.000000
  0.333333 -0.166667  0.000000      1.000000
  0.000000 -0.333333  0.166667      1.000000
  0.000000  0.333333 -0.166667      1.000000
  0.166667  0.000000 -0.333333      1.000000
 -0.166667  0.000000  0.333333      1.000000
  0.166667  0.166667  0.500000      1.000000
 -0.166667 -0.166667  0.500000      1.000000
 -0.333333  0.500000 -0.333333      1.000000
  0.333333  0.500000  0.333333      1.000000
  0.166667 -0.333333  0.000000      1.000000
 -0.166667  0.333333  0.000000      1.000000
  0.500000 -0.166667 -0.166667      1.000000
  0.500000  0.166667  0.166667      1.000000
 -0.333333 -0.333333  0.500000      1.000000
  0.333333  0.333333  0.500000      1.000000
  0.000000  0.166667 -0.333333      1.000000
  0.000000 -0.166667  0.333333      1.000000
 -0.166667  0.500000 -0.166667      1.000000
  0.166667  0.500000  0.166667      1.000000
  0.500000 -0.333333 -0.333333      1.000000
  0.500000  0.333333  0.333333      1.000000
 -0.333333  0.000000  0.166667      1.000000
  0.333333  0.000000 -0.166667      1.000000
 -0.166667  0.166667  0.000000      1.000000
  0.166667 -0.166667  0.000000      1.000000
  0.000000 -0.166667  0.166667      1.000000
  0.000000  0.166667 -0.166667      1.000000
  0.166667  0.000000 -0.166667      1.000000
 -0.166667  0.000000  0.166667      1.000000
  0.166667  0.166667  0.333333      1.000000
 -0.166667 -0.166667 -0.333333      1.000000
 -0.166667 -0.333333 -0.166667      1.000000
  0.166667  0.333333  0.166667      1.000000
 -0.333333 -0.166667 -0.166667      1.000000
  0.333333  0.166667  0.166667      1.000000
  0.333333  0.333333  0.000000      1.000000
 -0.333333 -0.333333  0.000000      1.000000
  0.000000  0.333333  0.333333      1.000000
  0.000000 -0.333333 -0.333333      1.000000
  0.333333  0.000000  0.333333      1.000000
 -0.333333  0.000000 -0.333333      1.000000
  0.500000  0.333333  0.000000      1.000000
  0.500000 -0.333333  0.000000      1.000000
  0.000000  0.500000  0.333333      1.000000
  0.000000  0.500000 -0.333333      1.000000
  0.333333  0.000000  0.500000      1.000000
 -0.333333  0.000000  0.500000      1.000000
  0.333333  0.333333 -0.166667      1.000000
 -0.333333 -0.333333  0.166667      1.000000
  0.500000  0.166667  0.500000      1.000000
  0.500000 -0.166667  0.500000      1.000000
  0.333333  0.500000  0.000000      1.000000
 -0.333333  0.500000  0.000000      1.000000
  0.166667 -0.333333 -0.333333      1.000000
 -0.166667  0.333333  0.333333      1.000000
  0.500000  0.500000  0.166667      1.000000
  0.500000  0.500000 -0.166667      1.000000
  0.000000  0.333333  0.500000      1.000000
  0.000000 -0.333333  0.500000      1.000000
 -0.333333  0.166667 -0.333333      1.000000
  0.333333 -0.166667  0.333333      1.000000
  0.166667  0.500000  0.500000      1.000000
 -0.166667  0.500000  0.500000      1.000000
  0.500000  0.000000  0.333333      1.000000
  0.500000  0.000000 -0.333333      1.000000
 -0.333333  0.333333  0.000000      1.000000
  0.333333 -0.333333  0.000000      1.000000
  0.000000 -0.333333  0.333333      1.000000
  0.000000  0.333333 -0.333333      1.000000
  0.333333  0.000000 -0.333333      1.000000
 -0.333333  0.000000  0.333333      1.000000
  0.333333  0.333333 -0.333333      1.000000
 -0.333333 -0.333333  0.333333      1.000000
 -0.333333  0.333333 -0.333333      1.000000
  0.333333 -0.333333  0.333333      1.000000
  0.333333 -0.333333 -0.333333      1.000000
 -0.333333  0.333333  0.333333      1.000000
  0.500000  0.500000  0.000000      1.000000
  0.000000  0.500000  0.500000      1.000000
  0.500000  0.000000  0.500000      1.000000
  0.500000  0.333333  0.166667      1.000000
  0.500000 -0.333333 -0.166667      1.000000
  0.166667  0.500000  0.333333      1.000000
 -0.166667  0.500000 -0.333333      1.000000
  0.333333  0.166667  0.500000      1.000000
 -0.333333 -0.166667  0.500000      1.000000
  0.333333  0.166667 -0.166667      1.000000
 -0.333333 -0.166667  0.166667      1.000000
  0.500000  0.166667  0.333333      1.000000
  0.500000 -0.166667 -0.333333      1.000000
  0.166667 -0.333333 -0.166667      1.000000
 -0.166667  0.333333  0.166667      1.000000
  0.166667  0.333333 -0.166667      1.000000
 -0.166667 -0.333333  0.166667      1.000000
  0.166667 -0.166667 -0.333333      1.000000
 -0.166667  0.166667  0.333333      1.000000
  0.333333  0.500000  0.166667      1.000000
 -0.333333  0.500000 -0.166667      1.000000
 -0.166667  0.166667 -0.333333      1.000000
  0.166667 -0.166667  0.333333      1.000000
 -0.333333  0.166667 -0.166667      1.000000
  0.333333 -0.166667  0.166667      1.000000
  0.166667  0.333333  0.500000      1.000000
 -0.166667 -0.333333  0.500000      1.000000
 -0.333333  0.333333  0.166667      1.000000
  0.333333 -0.333333 -0.166667      1.000000
  0.166667 -0.333333  0.333333      1.000000
 -0.166667  0.333333 -0.333333      1.000000
  0.333333  0.166667 -0.333333      1.000000
 -0.333333 -0.166667  0.333333      1.000000
 -0.333333  0.333333  0.500000      1.000000
  0.333333 -0.333333  0.500000      1.000000
  0.166667  0.500000 -0.166667      1.000000
 -0.166667  0.500000  0.166667      1.000000
  0.333333 -0.166667 -0.333333      1.000000
 -0.333333  0.166667  0.333333      1.000000
  0.500000 -0.333333  0.333333      1.000000
  0.500000  0.333333 -0.333333      1.000000
 -0.166667  0.166667  0.500000      1.000000
  0.166667 -0.166667  0.500000      1.000000
 -0.333333  0.333333 -0.166667      1.000000
  0.333333 -0.333333  0.166667      1.000000
  0.333333  0.500000 -0.333333      1.000000
 -0.333333  0.500000  0.333333      1.000000
  0.500000 -0.166667  0.166667      1.000000
  0.500000  0.166667 -0.166667      1.000000
 -0.166667 -0.333333  0.333333      1.000000
  0.166667  0.333333 -0.333333      1.000000
 -0.333333  0.500000  0.166667      1.000000
  0.333333  0.500000 -0.166667      1.000000
  0.166667 -0.333333  0.500000      1.000000
 -0.166667  0.333333  0.500000      1.000000
  0.500000  0.166667 -0.333333      1.000000
  0.500000 -0.166667  0.333333      1.000000
  0.500000  0.333333 -0.166667      1.000000
  0.500000 -0.333333  0.166667      1.000000
 -0.333333  0.166667  0.500000      1.000000
  0.333333 -0.166667  0.500000      1.000000
  0.166667  0.500000 -0.333333      1.000000
 -0.166667  0.500000  0.333333      1.000000
 
 Following cartesian coordinates:
            Coordinates               Weight
  0.000000  0.000000  0.000000      1.000000
  0.166667  0.166667 -0.166667      1.000000
 -0.166667 -0.166667  0.166667      1.000000
 -0.166667  0.166667  0.166667      1.000000
  0.166667 -0.166667 -0.166667      1.000000
  0.166667 -0.166667  0.166667      1.000000
 -0.166667  0.166667 -0.166667      1.000000
  0.166667  0.166667  0.166667      1.000000
 -0.166667 -0.166667 -0.166667      1.000000
  0.333333  0.333333 -0.333333      1.000000
 -0.333333 -0.333333  0.333333      1.000000
 -0.333333  0.333333  0.333333      1.000000
  0.333333 -0.333333 -0.333333      1.000000
  0.333333 -0.333333  0.333333      1.000000
 -0.333333  0.333333 -0.333333      1.000000
  0.333333  0.333333  0.333333      1.000000
 -0.333333 -0.333333 -0.333333      1.000000
  0.500000  0.500000 -0.500000      1.000000
 -0.500000  0.500000  0.500000      1.000000
  0.500000 -0.500000  0.500000      1.000000
  0.500000  0.500000  0.500000      1.000000
  0.000000  0.333333  0.000000      1.000000
  0.000000 -0.333333  0.000000      1.000000
  0.000000  0.000000  0.333333      1.000000
  0.000000  0.000000 -0.333333      1.000000
  0.333333  0.000000  0.000000      1.000000
 -0.333333  0.000000  0.000000      1.000000
  0.166667  0.500000 -0.166667      1.000000
 -0.166667 -0.500000  0.166667      1.000000
 -0.166667  0.166667  0.500000      1.000000
  0.166667 -0.166667 -0.500000      1.000000
  0.500000 -0.166667  0.166667      1.000000
 -0.500000  0.166667 -0.166667      1.000000
 -0.166667  0.500000 -0.166667      1.000000
  0.166667 -0.500000  0.166667      1.000000
  0.500000  0.166667  0.166667      1.000000
 -0.500000 -0.166667 -0.166667      1.000000
 -0.166667  0.500000  0.166667      1.000000
  0.166667 -0.500000 -0.166667      1.000000
  0.166667  0.166667 -0.500000      1.000000
 -0.166667 -0.166667  0.500000      1.000000
  0.166667  0.500000  0.166667      1.000000
 -0.166667 -0.500000 -0.166667      1.000000
  0.166667 -0.166667  0.500000      1.000000
 -0.166667  0.166667 -0.500000      1.000000
 -0.500000  0.166667  0.166667      1.000000
  0.500000 -0.166667 -0.166667      1.000000
  0.166667  0.166667  0.500000      1.000000
 -0.166667 -0.166667 -0.500000      1.000000
  0.500000  0.166667 -0.166667      1.000000
 -0.500000 -0.166667  0.166667      1.000000
  0.333333  0.666667 -0.333333      1.000000
  0.666667  0.333333 -0.666667      1.000000
 -0.333333  0.333333  0.666667      1.000000
 -0.666667  0.666667  0.333333      1.000000
  0.666667 -0.333333  0.333333      1.000000
  0.333333 -0.666667  0.666667      1.000000
 -0.333333  0.666667 -0.333333      1.000000
  0.333333 -0.666667  0.333333      1.000000
  0.666667  0.333333  0.333333      1.000000
  1.333333 -0.333333 -0.333333      1.000000
 -0.333333  0.666667  0.333333      1.000000
 -0.666667  0.333333  0.666667      1.000000
  0.333333  0.333333 -0.666667      1.000000
 -0.333333 -0.333333  0.666667      1.000000
  0.333333  0.666667  0.333333      1.000000
 -0.333333  1.333333 -0.333333      1.000000
  0.333333 -0.333333  0.666667      1.000000
  0.666667 -0.666667  0.333333      1.000000
 -0.666667  0.333333  0.333333      1.000000
  0.666667 -0.333333 -0.333333      1.000000
  0.333333  0.333333  0.666667      1.000000
 -0.333333 -0.333333  1.333333      1.000000
  0.666667  0.333333 -0.333333      1.000000
  0.333333  0.666667 -0.666667      1.000000
 -0.500000 -0.166667  0.500000      1.000000
  0.500000  0.166667 -0.500000      1.000000
  0.500000 -0.500000 -0.166667      1.000000
 -0.500000  0.500000  0.166667      1.000000
 -0.166667  0.500000 -0.500000      1.000000
  0.166667 -0.500000  0.500000      1.000000
  0.500000 -0.166667  0.500000      1.000000
  0.500000 -0.833333  0.500000      1.000000
 -1.166667  0.500000  0.500000      1.000000
  0.166667  0.500000  0.500000      1.000000
  0.500000 -0.166667 -0.500000      1.000000
 -0.500000  0.166667  0.500000      1.000000
  0.500000  0.500000 -0.833333      1.000000
  0.500000  0.500000 -0.166667      1.000000
  0.500000 -1.166667  0.500000      1.000000
  0.500000  0.166667  0.500000      1.000000
 -0.500000  0.500000 -0.166667      1.000000
  0.500000 -0.500000  0.166667      1.000000
 -0.833333  0.500000  0.500000      1.000000
 -0.166667  0.500000  0.500000      1.000000
  0.500000  0.500000 -1.166667      1.000000
  0.500000  0.500000  0.166667      1.000000
 -0.166667 -0.500000  0.500000      1.000000
  0.166667  0.500000 -0.500000      1.000000
 -0.333333  0.000000  0.333333      1.000000
  0.333333  0.000000 -0.333333      1.000000
  0.333333 -0.333333  0.000000      1.000000
 -0.333333  0.333333  0.000000      1.000000
  0.000000  0.333333 -0.333333      1.000000
  0.000000 -0.333333  0.333333      1.000000
  0.333333  0.000000  0.333333      1.000000
 -0.333333  0.000000 -0.333333      1.000000
  0.000000 -0.333333 -0.333333      1.000000
  0.000000  0.333333  0.333333      1.000000
 -0.333333 -0.333333  0.000000      1.000000
  0.333333  0.333333  0.000000      1.000000
  0.000000  0.666667  0.000000      1.000000
  0.000000 -0.666667  0.000000      1.000000
  0.000000  0.000000  0.666667      1.000000
  0.000000  0.000000 -0.666667      1.000000
  0.666667  0.000000  0.000000      1.000000
 -0.666667  0.000000  0.000000      1.000000
  0.166667  0.833333 -0.166667      1.000000
  0.833333  0.166667 -0.833333      1.000000
 -0.166667  0.166667  0.833333      1.000000
 -0.833333  0.833333  0.166667      1.000000
  0.833333 -0.166667  0.166667      1.000000
  0.166667 -0.833333  0.833333      1.000000
 -0.166667  0.833333 -0.166667      1.000000
  0.166667 -0.833333  0.166667      1.000000
  0.833333  0.166667  0.166667      1.000000
  1.166667 -0.166667 -0.166667      1.000000
 -0.166667  0.833333  0.166667      1.000000
 -0.833333  0.166667  0.833333      1.000000
  0.166667  0.166667 -0.833333      1.000000
 -0.166667 -0.166667  0.833333      1.000000
  0.166667  0.833333  0.166667      1.000000
 -0.166667  1.166667 -0.166667      1.000000
  0.166667 -0.166667  0.833333      1.000000
  0.833333 -0.833333  0.166667      1.000000
 -0.833333  0.166667  0.166667      1.000000
  0.833333 -0.166667 -0.166667      1.000000
  0.166667  0.166667  0.833333      1.000000
 -0.166667 -0.166667  1.166667      1.000000
  0.833333  0.166667 -0.166667      1.000000
  0.166667  0.833333 -0.833333      1.000000
 -0.666667  0.000000  0.666667      1.000000
  0.666667  0.000000 -0.666667      1.000000
  0.666667 -0.666667  0.000000      1.000000
 -0.666667  0.666667  0.000000      1.000000
  0.000000  0.666667 -0.666667      1.000000
  0.000000 -0.666667  0.666667      1.000000
 -0.333333  1.000000 -0.333333      1.000000
  0.333333 -1.000000  0.333333      1.000000
 -1.000000  0.333333  0.333333      1.000000
  1.000000 -0.333333 -0.333333      1.000000
  0.333333  0.333333 -1.000000      1.000000
 -0.333333 -0.333333  1.000000      1.000000
  0.000000  1.000000  0.000000      1.000000
  0.000000  0.000000  1.000000      1.000000
  1.000000  0.000000  0.000000      1.000000
  0.333333  0.666667  0.000000      1.000000
  0.666667  0.333333 -1.000000      1.000000
  0.000000  0.333333  0.666667      1.000000
 -1.000000  0.666667  0.333333      1.000000
  0.666667  0.000000  0.333333      1.000000
  0.333333 -1.000000  0.666667      1.000000
  0.000000  0.666667 -0.333333      1.000000
  0.000000 -0.666667  0.333333      1.000000
  0.666667  0.333333  0.000000      1.000000
  0.333333  0.666667 -1.000000      1.000000
  0.333333  0.000000 -0.666667      1.000000
 -0.333333  0.000000  0.666667      1.000000
 -0.333333  0.666667  0.000000      1.000000
  0.333333 -0.666667  0.000000      1.000000
  0.000000  0.333333 -0.666667      1.000000
  0.000000 -0.333333  0.666667      1.000000
  0.000000  0.666667  0.333333      1.000000
 -1.000000  0.333333  0.666667      1.000000
 -0.666667  0.333333  0.000000      1.000000
  0.666667 -0.333333  0.000000      1.000000
 -0.666667  0.000000  0.333333      1.000000
  0.666667  0.000000 -0.333333      1.000000
  0.333333  0.000000  0.666667      1.000000
  0.666667 -1.000000  0.333333      1.000000
 -0.500000 -0.166667  0.833333      1.000000
  0.500000  0.166667 -0.833333      1.000000
  0.833333 -0.500000 -0.166667      1.000000
 -0.833333  0.500000  0.166667      1.000000
 -0.166667  0.833333 -0.500000      1.000000
  0.166667 -0.833333  0.500000      1.000000
 -0.166667 -0.500000  1.166667      1.000000
  1.166667 -0.500000 -0.166667      1.000000
 -0.500000  0.833333  0.166667      1.000000
 -0.500000  0.166667  0.833333      1.000000
  0.166667  0.500000 -0.833333      1.000000
 -0.166667 -0.500000  0.833333      1.000000
  1.166667 -0.166667 -0.500000      1.000000
 -0.166667  1.166667 -0.500000      1.000000
  0.166667 -0.500000  0.833333      1.000000
  0.833333 -0.500000  0.166667      1.000000
 -0.833333  0.166667  0.500000      1.000000
  0.833333 -0.166667 -0.500000      1.000000
 -0.500000  1.166667 -0.166667      1.000000
 -0.500000 -0.166667  1.166667      1.000000
  0.833333  0.166667 -0.500000      1.000000
  0.166667  0.833333 -0.500000      1.000000
  0.500000 -0.833333  0.166667      1.000000
 -0.500000  0.833333 -0.166667      1.000000
 -0.666667  0.000000  1.000000      1.000000
 -0.333333  1.000000  0.000000      1.000000
  1.000000 -0.666667  0.000000      1.000000
  0.000000 -0.333333  1.000000      1.000000
  0.000000  1.000000 -0.666667      1.000000
  1.000000  0.000000 -0.333333      1.000000
  0.000000  1.000000 -0.333333      1.000000
  1.000000  0.000000 -0.666667      1.000000
  0.000000 -0.666667  1.000000      1.000000
  1.000000 -0.333333  0.000000      1.000000
 -0.666667  1.000000  0.000000      1.000000
 -0.333333  0.000000  1.000000      1.000000
 
 files read and symmetry switched off, memory is now:
 total amount of memory used by VASP MPI-rank0   147125. kBytes
=======================================================================

   base                                    :      30000. kBytes
   nonl-proj                               :      23227. kBytes
   fftplans                                :       1158. kBytes
   grid                                    :       1913. kBytes
   one-center                              :         31. kBytes
   HF                                      :        129. kBytes
   nonlr-proj                              :       1543. kBytes
   wavefun                                 :      86482. kBytes
   fock_wrk                                :       2249. kBytes
   cder                                    :        393. kBytes

 Basis sets for responsefunctions:
 =================================
 k-point     1 :   0.0000 0.0000 0.0000  plane waves:     411
 k-point     2 :   0.1667 0.0000 0.0000  plane waves:     387
 k-point     3 :   0.3333 0.0000 0.0000  plane waves:     401
 k-point     4 :   0.5000 0.0000 0.0000  plane waves:     392
 k-point     5 :   0.1667 0.1667 0.0000  plane waves:     399
 k-point     6 :   0.3333 0.1667 0.0000  plane waves:     390
 k-point     7 :   0.5000 0.1667 0.0000  plane waves:     393
 k-point     8 :  -0.3333 0.1667 0.0000  plane waves:     394
 k-point     9 :  -0.1667 0.1667 0.0000  plane waves:     389
 k-point    10 :   0.3333 0.3333 0.0000  plane waves:     387
 k-point    11 :   0.5000 0.3333 0.0000  plane waves:     402
 k-point    12 :  -0.3333 0.3333 0.0000  plane waves:     403
 k-point    13 :   0.5000 0.5000 0.0000  plane waves:     388
 k-point    14 :   0.5000 0.3333 0.1667  plane waves:     405
 k-point    15 :  -0.3333 0.3333 0.1667  plane waves:     394
 k-point    16 :  -0.3333 0.5000 0.1667  plane waves:     398
 k-point    17 :  -0.1667-0.0000-0.0000  plane waves:     387
 k-point    18 :   0.0000 0.1667 0.0000  plane waves:     387
 k-point    19 :  -0.0000-0.1667-0.0000  plane waves:     387
 k-point    20 :   0.0000 0.0000 0.1667  plane waves:     387
 k-point    21 :  -0.0000-0.0000-0.1667  plane waves:     387
 k-point    22 :   0.1667 0.1667 0.1667  plane waves:     387
 k-point    23 :  -0.1667-0.1667-0.1667  plane waves:     387
 k-point    24 :  -0.3333-0.0000-0.0000  plane waves:     401
 k-point    25 :   0.0000 0.3333 0.0000  plane waves:     401
 k-point    26 :  -0.0000-0.3333-0.0000  plane waves:     401
 k-point    27 :   0.0000 0.0000 0.3333  plane waves:     401
 k-point    28 :  -0.0000-0.0000-0.3333  plane waves:     401
 k-point    29 :   0.3333 0.3333 0.3333  plane waves:     401
 k-point    30 :  -0.3333-0.3333-0.3333  plane waves:     401
 k-point    31 :   0.0000 0.5000 0.0000  plane waves:     392
 k-point    32 :   0.0000 0.0000 0.5000  plane waves:     392
 k-point    33 :  -0.5000-0.5000-0.5000  plane waves:     392
 k-point    34 :  -0.1667-0.1667 0.0000  plane waves:     399
 k-point    35 :   0.0000 0.1667 0.1667  plane waves:     399
 k-point    36 :   0.0000-0.1667-0.1667  plane waves:     399
 k-point    37 :   0.1667 0.0000 0.1667  plane waves:     399
 k-point    38 :  -0.1667 0.0000-0.1667  plane waves:     399
 k-point    39 :  -0.3333-0.1667-0.0000  plane waves:     390
 k-point    40 :   0.0000 0.3333 0.1667  plane waves:     390
 k-point    41 :  -0.0000-0.3333-0.1667  plane waves:     390
 k-point    42 :   0.1667 0.0000 0.3333  plane waves:     390
 k-point    43 :  -0.1667-0.0000-0.3333  plane waves:     390
 k-point    44 :   0.1667 0.1667-0.1667  plane waves:     390
 k-point    45 :  -0.1667-0.1667 0.1667  plane waves:     390
 k-point    46 :   0.3333 0.1667 0.3333  plane waves:     390
 k-point    47 :  -0.3333-0.1667-0.3333  plane waves:     390
 k-point    48 :   0.1667 0.3333-0.0000  plane waves:     390
 k-point    49 :  -0.1667-0.3333 0.0000  plane waves:     390
 k-point    50 :   0.1667-0.1667-0.1667  plane waves:     390
 k-point    51 :  -0.1667 0.1667 0.1667  plane waves:     390
 k-point    52 :   0.3333 0.3333 0.1667  plane waves:     390
 k-point    53 :  -0.3333-0.3333-0.1667  plane waves:     390
 k-point    54 :  -0.0000 0.1667 0.3333  plane waves:     390
 k-point    55 :   0.0000-0.1667-0.3333  plane waves:     390
 k-point    56 :  -0.1667 0.1667-0.1667  plane waves:     390
 k-point    57 :   0.1667-0.1667 0.1667  plane waves:     390
 k-point    58 :   0.1667 0.3333 0.3333  plane waves:     390
 k-point    59 :  -0.1667-0.3333-0.3333  plane waves:     390
 k-point    60 :   0.3333-0.0000 0.1667  plane waves:     390
 k-point    61 :  -0.3333 0.0000-0.1667  plane waves:     390
 k-point    62 :  -0.5000-0.1667-0.0000  plane waves:     393
 k-point    63 :   0.0000 0.5000 0.1667  plane waves:     393
 k-point    64 :  -0.0000-0.5000-0.1667  plane waves:     393
 k-point    65 :   0.1667 0.0000 0.5000  plane waves:     393
 k-point    66 :  -0.1667-0.0000-0.5000  plane waves:     393
 k-point    67 :   0.1667 0.1667-0.3333  plane waves:     393
 k-point    68 :  -0.1667-0.1667 0.3333  plane waves:     393
 k-point    69 :   0.5000 0.3333 0.5000  plane waves:     393
 k-point    70 :  -0.5000-0.3333-0.5000  plane waves:     393
 k-point    71 :   0.1667 0.5000-0.0000  plane waves:     393
 k-point    72 :  -0.1667-0.5000 0.0000  plane waves:     393
 k-point    73 :   0.3333-0.1667-0.1667  plane waves:     393
 k-point    74 :  -0.3333 0.1667 0.1667  plane waves:     393
 k-point    75 :   0.5000 0.5000 0.3333  plane waves:     393
 k-point    76 :  -0.5000-0.5000-0.3333  plane waves:     393
 k-point    77 :  -0.0000 0.1667 0.5000  plane waves:     393
 k-point    78 :   0.0000-0.1667-0.5000  plane waves:     393
 k-point    79 :  -0.1667 0.3333-0.1667  plane waves:     393
 k-point    80 :   0.1667-0.3333 0.1667  plane waves:     393
 k-point    81 :   0.3333 0.5000 0.5000  plane waves:     393
 k-point    82 :  -0.3333-0.5000-0.5000  plane waves:     393
 k-point    83 :   0.5000-0.0000 0.1667  plane waves:     393
 k-point    84 :  -0.5000 0.0000-0.1667  plane waves:     393
 k-point    85 :   0.3333-0.1667-0.0000  plane waves:     394
 k-point    86 :   0.0000-0.3333 0.1667  plane waves:     394
 k-point    87 :  -0.0000 0.3333-0.1667  plane waves:     394
 k-point    88 :   0.1667 0.0000-0.3333  plane waves:     394
 k-point    89 :  -0.1667-0.0000 0.3333  plane waves:     394
 k-point    90 :   0.1667 0.1667 0.5000  plane waves:     394
 k-point    91 :  -0.1667-0.1667-0.5000  plane waves:     394
 k-point    92 :  -0.3333-0.5000-0.3333  plane waves:     394
 k-point    93 :   0.3333 0.5000 0.3333  plane waves:     394
 k-point    94 :   0.1667-0.3333-0.0000  plane waves:     394
 k-point    95 :  -0.1667 0.3333 0.0000  plane waves:     394
 k-point    96 :  -0.5000-0.1667-0.1667  plane waves:     394
 k-point    97 :   0.5000 0.1667 0.1667  plane waves:     394
 k-point    98 :  -0.3333-0.3333-0.5000  plane waves:     394
 k-point    99 :   0.3333 0.3333 0.5000  plane waves:     394
 k-point   100 :  -0.0000 0.1667-0.3333  plane waves:     394
 k-point   101 :   0.0000-0.1667 0.3333  plane waves:     394
 k-point   102 :  -0.1667-0.5000-0.1667  plane waves:     394
 k-point   103 :   0.1667 0.5000 0.1667  plane waves:     394
 k-point   104 :  -0.5000-0.3333-0.3333  plane waves:     394
 k-point   105 :   0.5000 0.3333 0.3333  plane waves:     394
 k-point   106 :  -0.3333-0.0000 0.1667  plane waves:     394
 k-point   107 :   0.3333 0.0000-0.1667  plane waves:     394
 k-point   108 :   0.1667-0.1667-0.0000  plane waves:     389
 k-point   109 :   0.0000-0.1667 0.1667  plane waves:     389
 k-point   110 :  -0.0000 0.1667-0.1667  plane waves:     389
 k-point   111 :   0.1667 0.0000-0.1667  plane waves:     389
 k-point   112 :  -0.1667-0.0000 0.1667  plane waves:     389
 k-point   113 :   0.1667 0.1667 0.3333  plane waves:     389
 k-point   114 :  -0.1667-0.1667-0.3333  plane waves:     389
 k-point   115 :  -0.1667-0.3333-0.1667  plane waves:     389
 k-point   116 :   0.1667 0.3333 0.1667  plane waves:     389
 k-point   117 :  -0.3333-0.1667-0.1667  plane waves:     389
 k-point   118 :   0.3333 0.1667 0.1667  plane waves:     389
 k-point   119 :  -0.3333-0.3333 0.0000  plane waves:     387
 k-point   120 :   0.0000 0.3333 0.3333  plane waves:     387
 k-point   121 :   0.0000-0.3333-0.3333  plane waves:     387
 k-point   122 :   0.3333 0.0000 0.3333  plane waves:     387
 k-point   123 :  -0.3333-0.0000-0.3333  plane waves:     387
 k-point   124 :  -0.5000-0.3333-0.0000  plane waves:     402
 k-point   125 :   0.0000 0.5000 0.3333  plane waves:     402
 k-point   126 :  -0.0000-0.5000-0.3333  plane waves:     402
 k-point   127 :   0.3333 0.0000 0.5000  plane waves:     402
 k-point   128 :  -0.3333-0.0000-0.5000  plane waves:     402
 k-point   129 :   0.3333 0.3333-0.1667  plane waves:     402
 k-point   130 :  -0.3333-0.3333 0.1667  plane waves:     402
 k-point   131 :   0.5000 0.1667 0.5000  plane waves:     402
 k-point   132 :  -0.5000-0.1667-0.5000  plane waves:     402
 k-point   133 :   0.3333 0.5000-0.0000  plane waves:     402
 k-point   134 :  -0.3333-0.5000 0.0000  plane waves:     402
 k-point   135 :   0.1667-0.3333-0.3333  plane waves:     402
 k-point   136 :  -0.1667 0.3333 0.3333  plane waves:     402
 k-point   137 :   0.5000 0.5000 0.1667  plane waves:     402
 k-point   138 :  -0.5000-0.5000-0.1667  plane waves:     402
 k-point   139 :  -0.0000 0.3333 0.5000  plane waves:     402
 k-point   140 :   0.0000-0.3333-0.5000  plane waves:     402
[...]
      5       7.6936       8.3455      -9.7086     -10.5739      -5.6601       0.7533       0.0000      -0.0784
      6       7.6936       8.3455      -9.7086     -10.5739      -5.6601       0.7533       0.0000      -0.0784
      7       7.6936       8.3455      -9.7086     -10.5739      -5.6601       0.7533       0.0000      -0.0784
      8       8.2721       9.2692     -10.5616     -11.8931      -6.1747       0.7488       0.0000      -0.0898

 k-point   2 :       0.1667    0.0000    0.0000
  band No.  KS-energies  QP-energies   sigma(KS)   V_xc(KS)     V^pw_x(r,r')   Z            occupation Imag(sigma)

      1      -6.5660      -6.5606     -11.1233     -11.1317     -17.4894       0.6510       2.0000       1.0995
      2       2.5950       2.6681     -11.5627     -11.6622     -13.3189       0.7352       2.0000       0.0794
      3       4.4857       4.6396     -11.8310     -12.0346     -12.8856       0.7559       2.0000       0.0501
      4       4.4857       4.6396     -11.8310     -12.0346     -12.8856       0.7559       2.0000       0.0501
      5       7.4200       8.1190      -9.8332     -10.7559      -5.8300       0.7576       0.0000      -0.0753
      6       8.3160       8.9932      -9.8389     -10.7450      -5.6009       0.7474       0.0000      -0.0885
      7       8.3160       8.9932      -9.8389     -10.7450      -5.6009       0.7474       0.0000      -0.0885
      8      10.3879      11.2678     -10.5094     -11.7106      -5.6559       0.7325       0.0000      -0.1464

 k-point   3 :       0.3333    0.0000    0.0000
  band No.  KS-energies  QP-energies   sigma(KS)   V_xc(KS)     V^pw_x(r,r')   Z            occupation Imag(sigma)

      1      -5.5675      -5.5539     -11.2645     -11.2849     -17.1836       0.6652       2.0000       0.9562
      2      -0.3081      -0.3269     -11.2426     -11.2156     -14.5290       0.6988       2.0000       0.2315
      3       3.9518       4.0578     -11.7815     -11.9228     -13.0816       0.7501       2.0000       0.0571
      4       3.9518       4.0578     -11.7815     -11.9228     -13.0816       0.7501       2.0000       0.0571
      5       6.8233       7.4997      -9.7910     -10.6791      -5.9572       0.7616       0.0000      -0.0689
      6       8.6591       9.2848      -9.5155     -10.3523      -5.1212       0.7476       0.0000      -0.0963
      7       8.6591       9.2848      -9.5155     -10.3523      -5.1212       0.7476       0.0000      -0.0963
      8      13.0163      13.4702      -9.2157      -9.8357      -3.5301       0.7320       0.0000      -0.3199

 k-point   4 :       0.5000    0.0000    0.0000
  band No.  KS-energies  QP-energies   sigma(KS)   V_xc(KS)     V^pw_x(r,r')   Z            occupation Imag(sigma)

      1      -4.6442      -4.5960     -11.4886     -11.5596     -17.0038       0.6799       2.0000       0.8266
      2      -1.9025      -1.9602     -10.9369     -10.8535     -15.0442       0.6916       2.0000       0.4083
      3       3.7558       3.8455     -11.7900     -11.9098     -13.1931       0.7486       2.0000       0.0603
      4       3.7558       3.8455     -11.7900     -11.9098     -13.1931       0.7486       2.0000       0.0603
      5       6.5947       7.2669      -9.7921     -10.6722      -6.0194       0.7638       0.0000      -0.0666
      6       8.5223       9.1067      -9.3153     -10.0938      -4.9561       0.7507       0.0000      -0.0940
      7       8.5223       9.1067      -9.3153     -10.0938      -4.9561       0.7507       0.0000      -0.0940
      8      13.0397      13.0845      -7.8838      -7.9438      -2.3691       0.7480       0.0000      -0.3143

 k-point   5 :       0.1667    0.1667    0.0000
  band No.  KS-energies  QP-energies   sigma(KS)   V_xc(KS)     V^pw_x(r,r')   Z            occupation Imag(sigma)

      1      -6.4444      -6.4399     -11.1367     -11.1436     -17.4471       0.6537       2.0000       1.0837
      2       2.8771       3.0357     -11.9023     -12.1175     -13.5581       0.7371       2.0000       0.0756
      3       3.7902       3.8729     -11.5669     -11.6773     -12.8366       0.7498       2.0000       0.0567
      4       3.7902       3.8729     -11.5669     -11.6773     -12.8366       0.7498       2.0000       0.0567
      5       6.8669       7.3976      -9.3500     -10.0469      -5.5441       0.7615       0.0000      -0.0693
      6       9.3787      10.0987      -9.7917     -10.7592      -5.1939       0.7442       0.0000      -0.1113
      7       9.3950      10.1313     -10.1425     -11.1399      -5.5935       0.7382       0.0000      -0.1134
      8       9.3950      10.1313     -10.1425     -11.1399      -5.5935       0.7382       0.0000      -0.1134

 k-point   6 :       0.3333    0.1667    0.0000
  band No.  KS-energies  QP-energies   sigma(KS)   V_xc(KS)     V^pw_x(r,r')   Z            occupation Imag(sigma)

      1      -5.6410      -5.6305     -11.2342     -11.2500     -17.1860       0.6643       2.0000       0.9678
      2       0.5414       0.5841     -11.5721     -11.6327     -14.4363       0.7057       2.0000       0.1675
      3       3.0122       3.0561     -11.3738     -11.4330     -12.8606       0.7418       2.0000       0.0657
      4       3.2513       3.2876     -11.5213     -11.5700     -13.0531       0.7441       2.0000       0.0644
      5       7.1130       7.6401      -9.4019     -10.0934      -5.5538       0.7623       0.0000      -0.0716
      6       9.1762       9.8695      -9.7215     -10.6559      -5.0627       0.7419       0.0000      -0.1147
      7       9.6394      10.1969      -9.4578     -10.2035      -4.9404       0.7475       0.0000      -0.1159
      8      10.1530      10.8626      -9.9498     -10.9159      -5.1121       0.7344       0.0000      -0.1439

 k-point   7 :       0.5000    0.1667    0.0000
  band No.  KS-energies  QP-energies   sigma(KS)   V_xc(KS)     V^pw_x(r,r')   Z            occupation Imag(sigma)

      1      -4.4802      -4.4379     -11.4578     -11.5200     -16.8928       0.6797       2.0000       0.7985
      2      -1.5718      -1.5888     -11.1736     -11.1491     -15.1320       0.6933       2.0000       0.3682
      3       2.2500       2.2418     -11.2411     -11.2298     -13.0842       0.7325       2.0000       0.0821
      4       3.2135       3.2499     -11.5851     -11.6342     -13.1610       0.7425       2.0000       0.0656
      5       7.2014       7.7365      -9.2947      -9.9966      -5.3477       0.7623       0.0000      -0.0746
      6       9.1850       9.8491      -9.8146     -10.7044      -5.3452       0.7464       0.0000      -0.1073
      7       9.7614      10.3956      -9.5727     -10.4290      -4.8381       0.7406       0.0000      -0.1307
      8      11.5397      12.1174      -9.5459     -10.3366      -4.2334       0.7306       0.0000      -0.2214

 k-point   8 :      -0.3333    0.1667    0.0000
  band No.  KS-energies  QP-energies   sigma(KS)   V_xc(KS)     V^pw_x(r,r')   Z            occupation Imag(sigma)

      1      -4.8529      -4.8261     -11.3735     -11.4133     -16.9714       0.6751       2.0000       0.8518
      2      -0.9902      -0.9889     -11.3012     -11.3030     -14.9670       0.6955       2.0000       0.3007
      3       1.9975       1.9601     -11.1325     -11.0814     -13.0917       0.7306       2.0000       0.0887
      4       3.6685       3.7481     -11.7165     -11.8229     -13.1181       0.7480       2.0000       0.0595
      5       7.5825       8.1918      -9.4901     -10.2933      -5.4180       0.7586       0.0000      -0.0794
      6       9.2023       9.8229      -9.7202     -10.5498      -5.2927       0.7482       0.0000      -0.1062
      7       9.3783      10.0102      -9.5382     -10.3910      -4.8428       0.7410       0.0000      -0.1216
      8      12.3679      12.9853      -9.7075     -10.5536      -4.1644       0.7296       0.0000      -0.2760

 k-point   9 :      -0.1667    0.1667    0.0000
  band No.  KS-energies  QP-energies   sigma(KS)   V_xc(KS)     V^pw_x(r,r')   Z            occupation Imag(sigma)

      1      -5.9860      -5.9785     -11.1945     -11.2059     -17.3009       0.6589       2.0000       1.0168
      2       1.2457       1.3073     -11.6677     -11.7538     -14.1659       0.7151       2.0000       0.1278
      3       2.6371       2.6177     -11.1056     -11.0794     -12.7311       0.7381       2.0000       0.0716
      4       4.3640       4.5124     -11.8995     -12.0962     -13.0342       0.7540       2.0000       0.0519
      5       8.1236       8.8495      -9.8379     -10.8064      -5.5665       0.7496       0.0000      -0.0870
      6       8.6830       9.3538      -9.7174     -10.6217      -5.2169       0.7418       0.0000      -0.1028
      7       8.8897       9.5314      -9.9876     -10.8441      -5.7755       0.7492       0.0000      -0.0939
      8      10.7657      11.4045      -9.5997     -10.4681      -4.5762       0.7355       0.0000      -0.1686

 k-point  10 :       0.3333    0.3333    0.0000
  band No.  KS-energies  QP-energies   sigma(KS)   V_xc(KS)     V^pw_x(r,r')   Z            occupation Imag(sigma)

      1      -5.0428      -5.0255     -11.2836     -11.3092     -16.9672       0.6744       2.0000       0.8822
      2      -0.0694       0.0262     -11.7802     -11.9169     -15.0243       0.6996       2.0000       0.2191
      3       2.6015       2.5858     -11.4181     -11.3967     -13.2448       0.7336       2.0000       0.0754
      4       2.6015       2.5858     -11.4181     -11.3967     -13.2448       0.7336       2.0000       0.0754
      5       5.9237       6.3431      -9.0232      -9.5680      -5.4379       0.7697       0.0000      -0.0621
      6       7.2264       7.6322      -8.7482      -9.2779      -4.7119       0.7661       0.0000      -0.0777
      7      12.2774      13.0420     -10.2917     -11.3501      -4.6961       0.7223       0.0000      -0.2820
      8      12.2774      13.0420     -10.2917     -11.3501      -4.6961       0.7223       0.0000      -0.2820

 k-point  11 :       0.5000    0.3333    0.0000
  band No.  KS-energies  QP-energies   sigma(KS)   V_xc(KS)     V^pw_x(r,r')   Z            occupation Imag(sigma)

      1      -3.9004      -3.8539     -11.4298     -11.4976     -16.6006       0.6866       2.0000       0.7119
      2      -1.6018      -1.5243     -11.6288     -11.7409     -15.6762       0.6913       2.0000       0.3798
      3       1.4560       1.3470     -10.8998     -10.7492     -13.0995       0.7239       2.0000       0.1035
      4       2.4657       2.4416     -11.4256     -11.3928     -13.3247       0.7327       2.0000       0.0779
      5       6.2745       6.6844      -8.9084      -9.4404      -5.1771       0.7705       0.0000      -0.0666
      6       7.8828       8.3732      -9.2114      -9.8573      -5.0558       0.7592       0.0000      -0.0852
      7      12.4961      13.2457     -10.1719     -11.2020      -4.5617       0.7277       0.0000      -0.2925
      8      12.5318      13.2199      -9.9365     -10.8827      -4.2980       0.7272       0.0000      -0.3026

 k-point  12 :      -0.3333    0.3333    0.0000
  band No.  KS-energies  QP-energies   sigma(KS)   V_xc(KS)     V^pw_x(r,r')   Z            occupation Imag(sigma)

      1      -3.7195      -3.6596     -11.5412     -11.6284     -16.6267       0.6873       2.0000       0.6835
      2      -1.7928      -1.7338     -11.5392     -11.6242     -15.6713       0.6936       2.0000       0.4052
      3       0.7091       0.5507     -10.6426     -10.4210     -13.2131       0.7148       2.0000       0.1390
      4       2.8913       2.8995     -11.5179     -11.5291     -13.2344       0.7385       2.0000       0.0705
      5       6.7689       7.2207      -8.9769      -9.5657      -5.1051       0.7673       0.0000      -0.0713
      6      10.9109      11.4452      -9.4769     -10.1987      -4.5403       0.7403       0.0000      -0.1714
      7      11.5769      12.2564      -9.8692     -10.8085      -4.3342       0.7234       0.0000      -0.2451
      8      12.0956      12.8370     -10.1539     -11.1726      -4.6425       0.7278       0.0000      -0.2643

 k-point  13 :       0.5000    0.5000    0.0000
  band No.  KS-energies  QP-energies   sigma(KS)   V_xc(KS)     V^pw_x(r,r')   Z            occupation Imag(sigma)

      1      -2.8352      -2.7710     -11.4971     -11.5902     -16.1671       0.6898       2.0000       0.5488
      2      -2.8352      -2.7710     -11.4971     -11.5902     -16.1671       0.6898       2.0000       0.5488
      3       2.1761       2.1327     -11.3831     -11.3235     -13.4133       0.7279       2.0000       0.0839
      4       2.1761       2.1327     -11.3831     -11.3235     -13.4133       0.7279       2.0000       0.0839
      5       5.9342       6.3093      -8.8028      -9.2891      -5.1403       0.7716       0.0000      -0.0647
      6       5.9342       6.3093      -8.8028      -9.2891      -5.1403       0.7716       0.0000      -0.0647
      7      15.1125      15.8696     -10.3823     -11.4466      -3.7257       0.7113       0.0000      -0.5709
      8      15.1125      15.8696     -10.3823     -11.4466      -3.7257       0.7113       0.0000      -0.5709

 k-point  14 :       0.5000    0.3333    0.1667
  band No.  KS-energies  QP-energies   sigma(KS)   V_xc(KS)     V^pw_x(r,r')   Z            occupation Imag(sigma)

      1      -4.6679      -4.6398     -11.3582     -11.3995     -16.8742       0.6790       2.0000       0.8254
      2      -0.6850      -0.6105     -11.6742     -11.7812     -15.2321       0.6962       2.0000       0.2740
      3       1.5155       1.4157     -10.8970     -10.7593     -13.0655       0.7244       2.0000       0.1022
      4       2.7364       2.7242     -11.2844     -11.2679     -12.9424       0.7376       2.0000       0.0705
      5       7.9792       8.5398      -9.5191     -10.2617      -5.3746       0.7548       0.0000      -0.0851
      6       8.9022       9.3709      -9.0601      -9.6814      -4.6468       0.7543       0.0000      -0.1023
      7       9.3219      10.0116      -9.7967     -10.7267      -5.1761       0.7416       0.0000      -0.1160
      8      12.0914      12.8312     -10.1841     -11.2025      -4.6864       0.7264       0.0000      -0.2627

 k-point  15 :      -0.3333    0.3333    0.1667
  band No.  KS-energies  QP-energies   sigma(KS)   V_xc(KS)     V^pw_x(r,r')   Z            occupation Imag(sigma)

      1      -3.7109      -3.6489     -11.5501     -11.6402     -16.6343       0.6883       2.0000       0.6831
      2      -1.8538      -1.8089     -11.4644     -11.5291     -15.6152       0.6939       2.0000       0.4102
      3       1.0828       0.9652     -10.8326     -10.6690     -13.2271       0.7189       2.0000       0.1210
      4       2.2940       2.2403     -11.1304     -11.0571     -12.9636       0.7328       2.0000       0.0790
      5       8.5176       9.0021      -9.2333      -9.8753      -4.9852       0.7546       0.0000      -0.0920
      6       8.6650       9.3027      -9.6408     -10.4932      -5.2178       0.7481       0.0000      -0.0999
      7      11.2113      11.7877      -9.5503     -10.3337      -4.4193       0.7356       0.0000      -0.1951
      8      11.6213      12.2618      -9.7417     -10.6229      -4.2702       0.7267       0.0000      -0.2399

 k-point  16 :      -0.3333    0.5000    0.1667
  band No.  KS-energies  QP-energies   sigma(KS)   V_xc(KS)     V^pw_x(r,r')   Z            occupation Imag(sigma)

      1      -2.7267      -2.6519     -11.5793     -11.6875     -16.1978       0.6913       2.0000       0.5350
      2      -2.7267      -2.6519     -11.5793     -11.6875     -16.1978       0.6913       2.0000       0.5350
      3       1.4465       1.3318     -10.8841     -10.7255     -13.0863       0.7233       2.0000       0.1034
      4       1.4465       1.3318     -10.8841     -10.7255     -13.0863       0.7233       2.0000       0.1034
      5       7.9052       8.4078      -9.2768      -9.9399      -5.1319       0.7580       0.0000      -0.0849
      6       7.9052       8.4078      -9.2768      -9.9399      -5.1319       0.7580       0.0000      -0.0849
      7      11.8504      12.5025      -9.7959     -10.6886      -4.3622       0.7304       0.0000      -0.2469
      8      11.8504      12.5025      -9.7959     -10.6886      -4.3622       0.7304       0.0000      -0.2469


--------------------------------------------------------------------------------------------------------


  QP_SHIFT:  cpu time      1.3843: real time      0.7667
    GWLOOP:  cpu time    607.1433: real time    230.2258
  LATTYP: Found a face centered cubic cell.
 ALAT       =     5.4300000000
  
  Lattice vectors:
  
 A1 = (   2.7150000000,   2.7150000000,   0.0000000000)
 A2 = (   0.0000000000,   2.7150000000,   2.7150000000)
 A3 = (   2.7150000000,   0.0000000000,   2.7150000000)


Analysis of symmetry for initial positions (statically):
=====================================================================
 Subroutine PRICEL returns:
 Original cell was already a primitive cell.
 

 Routine SETGRP: Setting up the symmetry group for a 
 face centered cubic supercell.


 Subroutine GETGRP returns: Found 48 space group operations
 (whereof 24 operations were pure point group operations)
 out of a pool of 48 trial point group operations.


The static configuration has the point symmetry T_d .
 The point group associated with its full space group is O_h .


Analysis of symmetry for dynamics (positions and initial velocities):
=====================================================================
 Subroutine PRICEL returns:
 Original cell was already a primitive cell.
 

 Routine SETGRP: Setting up the symmetry group for a 
 face centered cubic supercell.


 Subroutine GETGRP returns: Found 48 space group operations
 (whereof 24 operations were pure point group operations)
 out of a pool of 48 trial point group operations.


The dynamic configuration has the point symmetry T_d .
 The point group associated with its full space group is O_h .


 Subroutine INISYM returns: Found 48 space group operations
 (whereof 24 operations are pure point group operations),
 and found     1 'primitive' translations

 writing wavefunctions
    --------------------------------------------
   GWTOTAL:  cpu time    607.5669: real time    230.5226
    4ORBIT:  cpu time      0.0000: real time      0.0000

 total amount of memory used by VASP MPI-rank0    45564. kBytes
=======================================================================

   base                                    :      30000. kBytes
   nonl-proj                               :       1742. kBytes
   fftplans                                :       1158. kBytes
   grid                                    :       1913. kBytes
   one-center                              :         31. kBytes
   HF                                      :        129. kBytes
   nonlr-proj                              :       1543. kBytes
   wavefun                                 :       6406. kBytes
   fock_wrk                                :       2249. kBytes
   cder                                    :        393. kBytes
   2eintegral                              :          0. kBytes
   response                                :          0. kBytes

  
  
 General timing and accounting informations for this job:
 ========================================================
  
                  Total CPU time used (sec):      608.217
                            User time (sec):      539.302
                          System time (sec):       68.915
                         Elapsed time (sec):      231.010
  
                   Maximum memory used (kb):   416858112.
                   Average memory used (kb):          N/A
  
                          Minor page faults:       127551
                          Major page faults:          540
                 Voluntary context switches:          120
