<?xml version="1.0" encoding="ISO-8859-1"?>
<modeling>
 <generator>
  <i name="program" type="string">vasp </i>
  <i name="version" type="string">6.5.0  </i>
  <i name="subversion" type="string">16Dec24 (build Feb 18 2025 08:57:40) complex                          parallel </i>
  <i name="platform" type="string">LinuxGNU </i>
  <i name="date" type="string">2025 05 31 </i>
  <i name="time" type="string">17:16:19 </i>
 </generator>
 <incar>
  <i type="string" name="SYSTEM">Si G0W0</i>
  <i type="string" name="ALGO">EVGW0</i>
  <i name="ENCUT">    400.00000000</i>
  <i type="int" name="NBANDS">    64</i>
  <i type="int" name="ISMEAR">     0</i>
  <i name="SIGMA">      0.05000000</i>
  <i type="int" name="NOMEGA">    50</i>
  <i type="int" name="NELMGW">     1</i>
 </incar>
 <primitive_cell>
  <structure name="primitive_cell" >
   <crystal>
    <varray name="basis" >
     <v>       2.71500000       2.71500000       0.00000000 </v>
     <v>       0.00000000       2.71500000       2.71500000 </v>
     <v>       2.71500000       0.00000000       2.71500000 </v>
    </varray>
    <i name="volume">     40.02575175 </i>
    <varray name="rec_basis" >
     <v>       0.18416206       0.18416206      -0.18416206 </v>
     <v>      -0.18416206       0.18416206       0.18416206 </v>
     <v>       0.18416206      -0.18416206       0.18416206 </v>
    </varray>
   </crystal>
   <varray name="positions" >
    <v>       0.00000000       0.00000000       0.00000000 </v>
    <v>       0.25000000       0.25000000       0.25000000 </v>
   </varray>
  </structure>
  <varray name="primitive_index" >
   <v type="int" >        1 </v>
   <v type="int" >        2 </v>
  </varray>
 </primitive_cell>
 <kpoints>
  <generation param="Gamma">
   <v type="int" name="divisions">       6        6        6 </v>
   <v name="usershift">      0.00000000       0.00000000       0.00000000 </v>
   <v name="genvec1">      0.16666667       0.00000000       0.00000000 </v>
   <v name="genvec2">      0.00000000       0.16666667      -0.00000000 </v>
   <v name="genvec3">     -0.00000000      -0.00000000       0.16666667 </v>
   <v name="shift">      0.00000000       0.00000000       0.00000000 </v>
  </generation>
  <varray name="kpointlist" >
   <v>       0.00000000       0.00000000       0.00000000 </v>
   <v>       0.16666667       0.00000000       0.00000000 </v>
   <v>       0.33333333       0.00000000       0.00000000 </v>
   <v>       0.50000000       0.00000000       0.00000000 </v>
   <v>       0.16666667       0.16666667       0.00000000 </v>
   <v>       0.33333333       0.16666667       0.00000000 </v>
   <v>       0.50000000       0.16666667       0.00000000 </v>
   <v>      -0.33333333       0.16666667       0.00000000 </v>
   <v>      -0.16666667       0.16666667       0.00000000 </v>
   <v>       0.33333333       0.33333333       0.00000000 </v>
   <v>       0.50000000       0.33333333       0.00000000 </v>
   <v>      -0.33333333       0.33333333       0.00000000 </v>
   <v>       0.50000000       0.50000000       0.00000000 </v>
   <v>       0.50000000       0.33333333       0.16666667 </v>
   <v>      -0.33333333       0.33333333       0.16666667 </v>
   <v>      -0.33333333       0.50000000       0.16666667 </v>
  </varray>
  <varray name="weights" >
   <v>       0.00462963 </v>
   <v>       0.03703704 </v>
   <v>       0.03703704 </v>
   <v>       0.01851852 </v>
   <v>       0.02777778 </v>
   <v>       0.11111111 </v>
   <v>       0.11111111 </v>
   <v>       0.11111111 </v>
   <v>       0.05555556 </v>
   <v>       0.02777778 </v>
   <v>       0.11111111 </v>
   <v>       0.05555556 </v>
   <v>       0.01388889 </v>
   <v>       0.11111111 </v>
   <v>       0.11111111 </v>
   <v>       0.05555556 </v>
  </varray>
 </kpoints>
 <parameters>
  <separator name="general" >
   <i type="string" name="SYSTEM">Si G0W0</i>
   <i type="logical" name="LCOMPAT"> F  </i>
  </separator>
  <separator name="electronic" >
   <i type="string" name="PREC">normal</i>
   <i name="ENMAX">    400.00000000</i>
   <i name="ENAUG">    412.95200000</i>
   <i name="EDIFF">      0.00010000</i>
   <i type="int" name="IALGO">    38</i>
   <i type="int" name="IWAVPR">    10</i>
   <i type="int" name="NBANDS">    64</i>
   <i type="int" name="NBANDSLOW">    -1</i>
   <i type="int" name="NBANDSHIGH">    -1</i>
   <i name="NELECT">      8.00000000</i>
   <i type="int" name="TURBO">     0</i>
   <i type="int" name="IRESTART">     0</i>
   <i type="int" name="NREBOOT">     0</i>
   <i type="int" name="NMIN">     0</i>
   <i name="EREF">      0.00000000</i>
   <separator name="electronic smearing" >
    <i type="int" name="ISMEAR">     0</i>
    <i name="SIGMA">      0.05000000</i>
    <i name="KSPACING">      0.50000000</i>
    <i type="logical" name="KGAMMA"> T  </i>
    <i type="logical" name="KBLOWUP"> T  </i>
   </separator>
   <separator name="electronic projectors" >
    <i type="logical" name="LREAL"> F  </i>
    <v name="ROPT">      0.00000000</v>
    <i type="int" name="LMAXPAW">  -100</i>
    <i type="int" name="LMAXMIX">     2</i>
    <i type="logical" name="NLSPLINE"> F  </i>
   </separator>
   <separator name="electronic startup" >
    <i type="int" name="ISTART">     1</i>
    <i type="int" name="ICHARG">     0</i>
    <i type="int" name="INIWAV">     1</i>
   </separator>
   <separator name="electronic spin" >
    <i type="int" name="ISPIN">     1</i>
    <i type="logical" name="LNONCOLLINEAR"> F  </i>
    <v name="MAGMOM">      1.00000000      1.00000000</v>
    <i name="NUPDOWN">     -1.00000000</i>
    <i type="logical" name="LSORBIT"> F  </i>
    <v name="SAXIS">      0.00000000      0.00000000      1.00000000</v>
    <i type="logical" name="LSPIRAL"> F  </i>
    <v name="QSPIRAL">      0.00000000      0.00000000      0.00000000</v>
    <i type="logical" name="LZEROZ"> F  </i>
   </separator>
   <separator name="electronic exchange-correlation" >
    <i type="logical" name="LASPH"> F  </i>
   </separator>
   <separator name="electronic convergence" >
    <i type="int" name="NELM">    60</i>
    <i type="int" name="NELMDL">     0</i>
    <i type="int" name="NELMIN">     2</i>
    <i name="ENINI">    400.00000000</i>
    <separator name="electronic convergence detail" >
     <i type="logical" name="LDIAG"> T  </i>
     <i type="logical" name="LSUBROT"> F  </i>
     <i name="WEIMIN">      0.00000000</i>
     <i name="EBREAK">      0.00000039</i>
     <i name="DEPER">      0.30000000</i>
     <i type="int" name="NRMM">     4</i>
     <i name="TIME">      0.40000000</i>
    </separator>
   </separator>
   <separator name="electronic mixer" >
    <i name="AMIX">      0.40000000</i>
    <i name="BMIX">      1.00000000</i>
    <i name="AMIN">      0.10000000</i>
    <i name="AMIX_MAG">      1.60000000</i>
    <i name="BMIX_MAG">      1.00000000</i>
    <separator name="electronic mixer details" >
     <i type="int" name="IMIX">     4</i>
     <i type="logical" name="MIXFIRST"> F  </i>
     <i type="int" name="MAXMIX">   -45</i>
     <i name="WC">    100.00000000</i>
     <i type="int" name="INIMIX">     1</i>
     <i type="int" name="MIXPRE">     1</i>
     <i type="int" name="MREMOVE">     5</i>
    </separator>
   </separator>
   <separator name="electronic dipolcorrection" >
    <i type="logical" name="LDIPOL"> F  </i>
    <i type="logical" name="LMONO"> F  </i>
    <i type="int" name="IDIPOL">     0</i>
    <i name="EPSILON">      1.00000000</i>
    <v name="DIPOL">   -100.00000000   -100.00000000   -100.00000000</v>
    <i name="EFIELD">      0.00000000</i>
    <i type="logical" name="LVACPOTAV"> F  </i>
   </separator>
  </separator>
  <separator name="grids" >
   <i type="int" name="NGX">    20</i>
   <i type="int" name="NGY">    20</i>
   <i type="int" name="NGZ">    20</i>
   <i type="int" name="NGXF">    40</i>
   <i type="int" name="NGYF">    40</i>
   <i type="int" name="NGZF">    40</i>
   <i type="logical" name="ADDGRID"> F  </i>
  </separator>
  <separator name="ionic" >
   <i type="int" name="NSW">     0</i>
   <i type="int" name="IBRION">    -1</i>
   <i type="int" name="MDALGO">     0</i>
   <i type="int" name="ISIF">     0</i>
   <i name="PSTRESS">      0.00000000</i>
   <i name="EDIFFG">      0.00100000</i>
   <i type="int" name="NFREE">     0</i>
   <i name="POTIM">      0.50000000</i>
   <i name="SMASS">     -3.00000000</i>
   <i name="SCALEE">      1.00000000</i>
  </separator>
  <separator name="ionic md" >
   <i name="TEBEG">      0.00010000</i>
   <i name="TEEND">      0.00010000</i>
   <i type="int" name="NBLOCK">     1</i>
   <i type="int" name="KBLOCK">     1</i>
   <i type="int" name="NPACO">   256</i>
   <i name="APACO">     10.00000000</i>
  </separator>
  <separator name="symmetry" >
   <i type="int" name="ISYM">     3</i>
   <i name="SYMPREC">      0.00001000</i>
  </separator>
  <separator name="dos" >
   <i type="int" name="LORBIT">     0</i>
   <v name="RWIGS">     -1.00000000</v>
   <i type="int" name="NEDOS">   301</i>
   <i name="EMIN">     10.00000000</i>
   <i name="EMAX">    -10.00000000</i>
   <i name="EFERMI">      0.00000000</i>
  </separator>
  <separator name="writing" >
   <i type="int" name="NWRITE">     2</i>
   <i type="logical" name="LWAVE"> T  </i>
   <i type="logical" name="LDOWNSAMPLE"> F  </i>
   <i type="logical" name="LCHARG"> T  </i>
   <i type="logical" name="LPARD"> F  </i>
   <i type="logical" name="LVTOT"> F  </i>
   <i type="logical" name="LVHAR"> F  </i>
   <i type="logical" name="LELF"> F  </i>
   <i type="logical" name="LOPTICS"> F  </i>
   <v name="STM">      0.00000000      0.00000000      0.00000000      0.00000000      0.00000000      0.00000000      0.00000000</v>
  </separator>
  <separator name="performance" >
   <i type="int" name="NPAR">     2</i>
   <i type="int" name="NSIM">     4</i>
   <i type="int" name="NBLK">    -1</i>
   <i type="logical" name="LPLANE"> T  </i>
   <i type="logical" name="LSCALAPACK"> T  </i>
   <i type="logical" name="LSCAAWARE"> F  </i>
   <i type="logical" name="LSCALU"> F  </i>
   <i type="logical" name="LASYNC"> F  </i>
   <i type="logical" name="LORBITALREAL"> F  </i>
  </separator>
  <separator name="miscellaneous" >
   <i type="int" name="IDIOT">     3</i>
   <i type="int" name="PHON_NSTRUCT">    -1</i>
   <i type="logical" name="LMUSIC"> F  </i>
   <v name="POMASS">     28.08500000</v>
   <v name="DARWINR">      0.00000000</v>
   <v name="DARWINV">      1.00000000</v>
   <i type="logical" name="LCORR"> T  </i>
  </separator>
  <i type="logical" name="GGA_COMPAT"> T  </i>
  <i type="logical" name="LBERRY"> F  </i>
  <i type="int" name="ICORELEVEL">     0</i>
  <i type="logical" name="LDAU"> F  </i>
  <i type="int" name="I_CONSTRAINED_M">     0</i>
  <separator name="electronic exchange-correlation" >
   <i type="string" name="GGA    ">PE</i>
   <i type="string" name="XC_C">1</i>
   <i type="int" name="VOSKOWN">     0</i>
   <i type="logical" name="LHFCALC"> T  </i>
   <i type="string" name="PRECFOCK">normal</i>
   <i type="logical" name="LSYMGRAD"> F  </i>
   <i type="logical" name="LHFONE"> F  </i>
   <i type="logical" name="LRHFCALC"> F  </i>
   <i type="logical" name="LTHOMAS"> F  </i>
   <i type="logical" name="LMODELHF"> F  </i>
   <i type="logical" name="LFOCKACE"> T  </i>
   <i name="ENCUT4O">     -1.00000000</i>
   <i type="int" name="EXXOEP">     0</i>
   <i type="int" name="FOURORBIT">     0</i>
   <i name="AEXX">      1.00000000</i>
   <i name="HFALPHA">     -1.00000000</i>
   <i name="MCALPHA">      0.00000000</i>
   <i name="ALDAX">      0.00000000</i>
   <i name="AGGAX">      0.00000000</i>
   <i name="AMGGAX">      0.00000000</i>
   <i name="ALDAC">      0.00000000</i>
   <i name="AGGAC">      0.00000000</i>
   <i name="AMGGAC">      0.00000000</i>
   <i type="int" name="NKREDX">     1</i>
   <i type="int" name="NKREDY">     1</i>
   <i type="int" name="NKREDZ">     1</i>
   <i type="logical" name="SHIFTRED"> F  </i>
   <i type="logical" name="ODDONLY"> F  </i>
   <i type="logical" name="EVENONLY"> F  </i>
   <i type="int" name="LMAXFOCK">     4</i>
   <i type="int" name="NMAXFOCKAE">     1</i>
   <i type="logical" name="LFOCKAEDFT"> F  </i>
   <i name="HFSCREEN">      0.00000000</i>
   <i name="HFSCREENC">      0.00000000</i>
   <i type="int" name="NBANDSGWLOW">     1</i>
  </separator>
  <separator name="vdW DFT" >
   <i type="logical" name="LUSE_VDW"> F  </i>
   <i type="int" name="IVDW_NL">    -1</i>
   <i type="logical" name="LSPIN_VDW"> F  </i>
   <i name="ZAB_VDW">     -0.84910000</i>
   <i name="GAMMA_VDW">      1.39626340</i>
   <i name="ALPHA_VDW">      0.00000000</i>
   <i name="PARAM1">      0.12340000</i>
   <i name="PARAM2">      1.00000000</i>
   <i name="BPARAM">      6.30000000</i>
   <i name="CPARAM">      0.00930000</i>
  </separator>
  <separator name="model GW" >
   <i type="int" name="MODEL_GW">     0</i>
   <i name="MODEL_EPS0">     12.00772552</i>
   <i name="MODEL_ALPHA">      1.00000000</i>
  </separator>
  <separator name="linear response parameters" >
   <i type="logical" name="LEPSILON"> F  </i>
   <i type="logical" name="LRPA"> F  </i>
   <i type="logical" name="LNABLA"> F  </i>
   <i type="logical" name="LVEL"> F  </i>
   <i name="CSHIFT">      0.10000000</i>
   <i name="OMEGAMAX">     -1.00000000</i>
   <i name="DEG_THRESHOLD">      0.00200000</i>
   <i name="RTIME">     -0.10000000</i>
   <i name="WPLASMAI">      0.00000000</i>
   <v name="DFIELD">      0.00000000      0.00000000      0.00000000</v>
   <v name="WPLASMA">      0.00000000      0.00000000      0.00000000      0.00000000      0.00000000      0.00000000      0.00000000      0.00000000      0.00000000</v>
  </separator>
  <separator name="orbital magnetization" >
   <i type="logical" name="NUCIND"> F  </i>
   <v name="MAGPOS">      0.00000000      0.00000000      0.00000000</v>
   <i type="logical" name="LNICSALL"> T  </i>
   <i type="logical" name="ORBITALMAG"> F  </i>
   <i type="logical" name="LMAGBLOCH"> F  </i>
   <i type="logical" name="LCHIMAG"> F  </i>
   <i type="logical" name="LGAUGE"> T  </i>
   <i type="int" name="MAGATOM">     0</i>
   <v name="MAGDIPOL">      0.00000000      0.00000000      0.00000000</v>
   <v name="AVECCONST">      0.00000000      0.00000000      0.00000000</v>
  </separator>
  <separator name="response functions" >
   <i type="logical" name="LALL_IN_ONE"> F  </i>
   <i type="int" name="IALL_IN_ONE">    -1</i>
   <i type="int" name="NBANDS_WAVE">    -1</i>
   <i type="logical" name="LFINITE_TEMPERATURE"> F  </i>
   <i type="logical" name="LADDER"> F  </i>
   <i type="logical" name="LRPAFORCE"> F  </i>
   <i type="logical" name="LFXC"> F  </i>
   <i type="logical" name="LHARTREE"> T  </i>
   <i type="int" name="IBSE">     2</i>
   <v type="int" name="KPOINT">    -1     0     0     0</v>
   <i type="logical" name="LTCTC"> F  </i>
   <i type="logical" name="LTCTE"> F  </i>
   <i type="logical" name="LTETE"> F  </i>
   <i type="logical" name="LTRIPLET"> F  </i>
   <i type="logical" name="LFXCEPS"> F  </i>
   <i type="logical" name="LFXHEG"> F  </i>
   <i type="int" name="NATURALO">     2</i>
   <i type="logical" name="LHOLEGF"> F  </i>
   <i type="logical" name="L2ORDER"> F  </i>
   <i type="logical" name="LDMP1"> F  </i>
   <i type="logical" name="LMP2LT"> F  </i>
   <i type="logical" name="LSMP2LT"> F  </i>
   <i type="logical" name="LGWLF"> F  </i>
   <i name="ENCUTGW">    266.66666667</i>
   <i name="ENCUTGWSOFT">    213.33333651</i>
   <i name="ENCUTLF">     -1.00000000</i>
   <i type="logical" name="ESF_SPLINES"> F  </i>
   <i name="ESF_CONV">      0.01000000</i>
   <i type="int" name="ESF_NINTER">    15</i>
   <i type="int" name="LMAXMP2">    -1</i>
   <i name="SCISSOR">      0.00000000</i>
   <i type="int" name="NOMEGA">    50</i>
   <i type="int" name="NOMEGAR">    50</i>
   <i type="int" name="NBANDSGW">    -1</i>
   <i type="int" name="NBANDSO">    -1</i>
   <i type="int" name="NBANDSV">    -1</i>
   <i type="int" name="NELMGW">     1</i>
   <i type="int" name="NELMHF">     1</i>
   <i type="int" name="DIM">     3</i>
   <i type="int" name="IESPILON">     4</i>
   <i type="int" name="ANTIRES">     0</i>
   <i name="OMEGAMAX">    -30.00000000</i>
   <i name="OMEGAMIN">    -30.00000000</i>
   <i name="OMEGATL">   -200.00000000</i>
   <i type="int" name="OMEGAGRID">     0</i>
   <i name="CSHIFT">     -0.10000000</i>
   <i type="logical" name="LSELFENERGY"> F  </i>
   <i type="logical" name="LSPECTRAL"> T  </i>
   <i type="logical" name="LSPECTRALGW"> F  </i>
   <i type="logical" name="LSINGLES"> F  </i>
   <i type="logical" name="LFERMIGW"> F  </i>
   <i type="logical" name="ODDONLYGW"> F  </i>
   <i type="logical" name="EVENONLYGW"> F  </i>
   <i type="int" name="NKREDLFX">     1</i>
   <i type="int" name="NKREDLFY">     1</i>
   <i type="int" name="NKREDLFZ">     1</i>
   <i type="int" name="MAXMEM">  2800</i>
   <i type="int" name="TELESCOPE">     0</i>
   <i type="int" name="NTAUPAR">    -1</i>
   <i type="int" name="NOMEGAPAR">    -1</i>
   <i name="DAMP_NEWTON">      0.80000001</i>
   <i name="LAMBDA">      1.00000000</i>
  </separator>
  <separator name="External order field" >
   <i name="OFIELD_KAPPA">      0.00000000</i>
   <v name="OFIELD_K">      0.00000000      0.00000000      0.00000000</v>
   <i name="OFIELD_Q6_NEAR">      0.00000000</i>
   <i name="OFIELD_Q6_FAR">      0.00000000</i>
   <i name="OFIELD_A">      0.00000000</i>
  </separator>
  <separator name="optional k-points parameters" >
   <i type="int" name="KPOINTS_OPT_MODE">     1</i>
   <i type="logical" name="LKPOINTS_OPT"> F  </i>
  </separator>
 </parameters>
 <atominfo>
  <atoms>       2 </atoms>
  <types>       1 </types>
  <array name="atoms" >
   <dimension dim="1">ion</dimension>
   <field type="string">element</field>
   <field type="int">atomtype</field>
   <set>
    <rc><c>Si</c><c>   1</c></rc>
    <rc><c>Si</c><c>   1</c></rc>
   </set>
  </array>
  <array name="atomtypes" >
   <dimension dim="1">type</dimension>
   <field type="int">atomspertype</field>
   <field type="string">element</field>
   <field>mass</field>
   <field>valence</field>
   <field type="string">pseudopotential</field>
   <set>
    <rc><c>   2</c><c>Si</c><c>     28.08500000</c><c>      4.00000000</c><c>  PAW_PBE Si_GW 04May2012               </c></rc>
   </set>
  </array>
 </atominfo>
 <structure name="initialpos" >
  <crystal>
   <varray name="basis" >
    <v>       2.71500000       2.71500000       0.00000000 </v>
    <v>       0.00000000       2.71500000       2.71500000 </v>
    <v>       2.71500000       0.00000000       2.71500000 </v>
   </varray>
   <i name="volume">     40.02575175 </i>
   <varray name="rec_basis" >
    <v>       0.18416206       0.18416206      -0.18416206 </v>
    <v>      -0.18416206       0.18416206       0.18416206 </v>
    <v>       0.18416206      -0.18416206       0.18416206 </v>
   </varray>
  </crystal>
  <varray name="positions" >
   <v>       0.00000000       0.00000000       0.00000000 </v>
   <v>       0.25000000       0.25000000       0.25000000 </v>
  </varray>
 </structure>
 <calculation>
  <kpoints>
   <generation param="Gamma">
    <v type="int" name="divisions">       6        6        6 </v>
    <v name="usershift">      0.00000000       0.00000000       0.00000000 </v>
    <v name="genvec1">      0.16666667       0.00000000       0.00000000 </v>
    <v name="genvec2">      0.00000000       0.16666667      -0.00000000 </v>
    <v name="genvec3">     -0.00000000      -0.00000000       0.16666667 </v>
    <v name="shift">      0.00000000       0.00000000       0.00000000 </v>
   </generation>
   <varray name="kpointlist" >
    <v>       0.00000000       0.00000000       0.00000000 </v>
    <v>       0.16666667       0.00000000       0.00000000 </v>
    <v>      -0.16666667       0.00000000       0.00000000 </v>
    <v>       0.00000000       0.16666667       0.00000000 </v>
    <v>       0.00000000      -0.16666667       0.00000000 </v>
    <v>       0.00000000       0.00000000       0.16666667 </v>
    <v>       0.00000000       0.00000000      -0.16666667 </v>
    <v>       0.16666667       0.16666667       0.16666667 </v>
    <v>      -0.16666667      -0.16666667      -0.16666667 </v>
    <v>       0.33333333       0.00000000       0.00000000 </v>
    <v>      -0.33333333       0.00000000       0.00000000 </v>
    <v>       0.00000000       0.33333333       0.00000000 </v>
    <v>       0.00000000      -0.33333333       0.00000000 </v>
    <v>       0.00000000       0.00000000       0.33333333 </v>
    <v>       0.00000000       0.00000000      -0.33333333 </v>
    <v>       0.33333333       0.33333333       0.33333333 </v>
    <v>      -0.33333333      -0.33333333      -0.33333333 </v>
    <v>       0.50000000       0.00000000       0.00000000 </v>
    <v>       0.00000000       0.50000000       0.00000000 </v>
    <v>       0.00000000       0.00000000       0.50000000 </v>
    <v>       0.50000000       0.50000000       0.50000000 </v>
    <v>       0.16666667       0.16666667       0.00000000 </v>
    <v>      -0.16666667      -0.16666667       0.00000000 </v>
    <v>       0.00000000       0.16666667       0.16666667 </v>
    <v>       0.00000000      -0.16666667      -0.16666667 </v>
    <v>       0.16666667       0.00000000       0.16666667 </v>
    <v>      -0.16666667       0.00000000      -0.16666667 </v>
    <v>       0.33333333       0.16666667       0.00000000 </v>
    <v>      -0.33333333      -0.16666667       0.00000000 </v>
    <v>       0.00000000       0.33333333       0.16666667 </v>
    <v>       0.00000000      -0.33333333      -0.16666667 </v>
    <v>       0.16666667       0.00000000       0.33333333 </v>
    <v>      -0.16666667       0.00000000      -0.33333333 </v>
    <v>       0.16666667       0.16666667      -0.16666667 </v>
    <v>      -0.16666667      -0.16666667       0.16666667 </v>
    <v>       0.33333333       0.16666667       0.33333333 </v>
    <v>      -0.33333333      -0.16666667      -0.33333333 </v>
    <v>       0.16666667       0.33333333       0.00000000 </v>
    <v>      -0.16666667      -0.33333333       0.00000000 </v>
    <v>       0.16666667      -0.16666667      -0.16666667 </v>
    <v>      -0.16666667       0.16666667       0.16666667 </v>
    <v>       0.33333333       0.33333333       0.16666667 </v>
    <v>      -0.33333333      -0.33333333      -0.16666667 </v>
    <v>       0.00000000       0.16666667       0.33333333 </v>
    <v>       0.00000000      -0.16666667      -0.33333333 </v>
    <v>      -0.16666667       0.16666667      -0.16666667 </v>
    <v>       0.16666667      -0.16666667       0.16666667 </v>
    <v>       0.16666667       0.33333333       0.33333333 </v>
    <v>      -0.16666667      -0.33333333      -0.33333333 </v>
    <v>       0.33333333       0.00000000       0.16666667 </v>
    <v>      -0.33333333       0.00000000      -0.16666667 </v>
    <v>       0.50000000       0.16666667       0.00000000 </v>
    <v>       0.50000000      -0.16666667       0.00000000 </v>
    <v>       0.00000000       0.50000000       0.16666667 </v>
    <v>       0.00000000       0.50000000      -0.16666667 </v>
    <v>       0.16666667       0.00000000       0.50000000 </v>
    <v>      -0.16666667       0.00000000       0.50000000 </v>
    <v>       0.16666667       0.16666667      -0.33333333 </v>
    <v>      -0.16666667      -0.16666667       0.33333333 </v>
    <v>       0.50000000       0.33333333       0.50000000 </v>
    <v>       0.50000000      -0.33333333       0.50000000 </v>
    <v>       0.16666667       0.50000000       0.00000000 </v>
    <v>      -0.16666667       0.50000000       0.00000000 </v>
    <v>       0.33333333      -0.16666667      -0.16666667 </v>
    <v>      -0.33333333       0.16666667       0.16666667 </v>
    <v>       0.50000000       0.50000000       0.33333333 </v>
    <v>       0.50000000       0.50000000      -0.33333333 </v>
    <v>       0.00000000       0.16666667       0.50000000 </v>
    <v>       0.00000000      -0.16666667       0.50000000 </v>
    <v>      -0.16666667       0.33333333      -0.16666667 </v>
    <v>       0.16666667      -0.33333333       0.16666667 </v>
    <v>       0.33333333       0.50000000       0.50000000 </v>
    <v>      -0.33333333       0.50000000       0.50000000 </v>
    <v>       0.50000000       0.00000000       0.16666667 </v>
    <v>       0.50000000       0.00000000      -0.16666667 </v>
    <v>      -0.33333333       0.16666667       0.00000000 </v>
    <v>       0.33333333      -0.16666667       0.00000000 </v>
    <v>       0.00000000      -0.33333333       0.16666667 </v>
    <v>       0.00000000       0.33333333      -0.16666667 </v>
    <v>       0.16666667       0.00000000      -0.33333333 </v>
    <v>      -0.16666667       0.00000000       0.33333333 </v>
    <v>       0.16666667       0.16666667       0.50000000 </v>
    <v>      -0.16666667      -0.16666667       0.50000000 </v>
    <v>      -0.33333333       0.50000000      -0.33333333 </v>
    <v>       0.33333333       0.50000000       0.33333333 </v>
    <v>       0.16666667      -0.33333333       0.00000000 </v>
    <v>      -0.16666667       0.33333333       0.00000000 </v>
    <v>       0.50000000      -0.16666667      -0.16666667 </v>
    <v>       0.50000000       0.16666667       0.16666667 </v>
    <v>      -0.33333333      -0.33333333       0.50000000 </v>
    <v>       0.33333333       0.33333333       0.50000000 </v>
    <v>       0.00000000       0.16666667      -0.33333333 </v>
    <v>       0.00000000      -0.16666667       0.33333333 </v>
    <v>      -0.16666667       0.50000000      -0.16666667 </v>
    <v>       0.16666667       0.50000000       0.16666667 </v>
    <v>       0.50000000      -0.33333333      -0.33333333 </v>
    <v>       0.50000000       0.33333333       0.33333333 </v>
    <v>      -0.33333333       0.00000000       0.16666667 </v>
    <v>       0.33333333       0.00000000      -0.16666667 </v>
    <v>      -0.16666667       0.16666667       0.00000000 </v>
    <v>       0.16666667      -0.16666667       0.00000000 </v>
    <v>       0.00000000      -0.16666667       0.16666667 </v>
    <v>       0.00000000       0.16666667      -0.16666667 </v>
    <v>       0.16666667       0.00000000      -0.16666667 </v>
    <v>      -0.16666667       0.00000000       0.16666667 </v>
    <v>       0.16666667       0.16666667       0.33333333 </v>
    <v>      -0.16666667      -0.16666667      -0.33333333 </v>
    <v>      -0.16666667      -0.33333333      -0.16666667 </v>
    <v>       0.16666667       0.33333333       0.16666667 </v>
    <v>      -0.33333333      -0.16666667      -0.16666667 </v>
    <v>       0.33333333       0.16666667       0.16666667 </v>
    <v>       0.33333333       0.33333333       0.00000000 </v>
    <v>      -0.33333333      -0.33333333       0.00000000 </v>
    <v>       0.00000000       0.33333333       0.33333333 </v>
    <v>       0.00000000      -0.33333333      -0.33333333 </v>
    <v>       0.33333333       0.00000000       0.33333333 </v>
    <v>      -0.33333333       0.00000000      -0.33333333 </v>
    <v>       0.50000000       0.33333333       0.00000000 </v>
    <v>       0.50000000      -0.33333333       0.00000000 </v>
    <v>       0.00000000       0.50000000       0.33333333 </v>
    <v>       0.00000000       0.50000000      -0.33333333 </v>
    <v>       0.33333333       0.00000000       0.50000000 </v>
    <v>      -0.33333333       0.00000000       0.50000000 </v>
    <v>       0.33333333       0.33333333      -0.16666667 </v>
    <v>      -0.33333333      -0.33333333       0.16666667 </v>
    <v>       0.50000000       0.16666667       0.50000000 </v>
    <v>       0.50000000      -0.16666667       0.50000000 </v>
    <v>       0.33333333       0.50000000       0.00000000 </v>
    <v>      -0.33333333       0.50000000       0.00000000 </v>
    <v>       0.16666667      -0.33333333      -0.33333333 </v>
    <v>      -0.16666667       0.33333333       0.33333333 </v>
    <v>       0.50000000       0.50000000       0.16666667 </v>
    <v>       0.50000000       0.50000000      -0.16666667 </v>
    <v>       0.00000000       0.33333333       0.50000000 </v>
    <v>       0.00000000      -0.33333333       0.50000000 </v>
    <v>      -0.33333333       0.16666667      -0.33333333 </v>
    <v>       0.33333333      -0.16666667       0.33333333 </v>
    <v>       0.16666667       0.50000000       0.50000000 </v>
    <v>      -0.16666667       0.50000000       0.50000000 </v>
    <v>       0.50000000       0.00000000       0.33333333 </v>
    <v>       0.50000000       0.00000000      -0.33333333 </v>
    <v>      -0.33333333       0.33333333       0.00000000 </v>
    <v>       0.33333333      -0.33333333       0.00000000 </v>
    <v>       0.00000000      -0.33333333       0.33333333 </v>
    <v>       0.00000000       0.33333333      -0.33333333 </v>
    <v>       0.33333333       0.00000000      -0.33333333 </v>
    <v>      -0.33333333       0.00000000       0.33333333 </v>
    <v>       0.33333333       0.33333333      -0.33333333 </v>
    <v>      -0.33333333      -0.33333333       0.33333333 </v>
    <v>      -0.33333333       0.33333333      -0.33333333 </v>
    <v>       0.33333333      -0.33333333       0.33333333 </v>
    <v>       0.33333333      -0.33333333      -0.33333333 </v>
    <v>      -0.33333333       0.33333333       0.33333333 </v>
    <v>       0.50000000       0.50000000       0.00000000 </v>
    <v>       0.00000000       0.50000000       0.50000000 </v>
    <v>       0.50000000       0.00000000       0.50000000 </v>
    <v>       0.50000000       0.33333333       0.16666667 </v>
    <v>       0.50000000      -0.33333333      -0.16666667 </v>
    <v>       0.16666667       0.50000000       0.33333333 </v>
    <v>      -0.16666667       0.50000000      -0.33333333 </v>
    <v>       0.33333333       0.16666667       0.50000000 </v>
    <v>      -0.33333333      -0.16666667       0.50000000 </v>
    <v>       0.33333333       0.16666667      -0.16666667 </v>
    <v>      -0.33333333      -0.16666667       0.16666667 </v>
    <v>       0.50000000       0.16666667       0.33333333 </v>
    <v>       0.50000000      -0.16666667      -0.33333333 </v>
    <v>       0.16666667      -0.33333333      -0.16666667 </v>
    <v>      -0.16666667       0.33333333       0.16666667 </v>
    <v>       0.16666667       0.33333333      -0.16666667 </v>
    <v>      -0.16666667      -0.33333333       0.16666667 </v>
    <v>       0.16666667      -0.16666667      -0.33333333 </v>
    <v>      -0.16666667       0.16666667       0.33333333 </v>
    <v>       0.33333333       0.50000000       0.16666667 </v>
    <v>      -0.33333333       0.50000000      -0.16666667 </v>
    <v>      -0.16666667       0.16666667      -0.33333333 </v>
    <v>       0.16666667      -0.16666667       0.33333333 </v>
    <v>      -0.33333333       0.16666667      -0.16666667 </v>
    <v>       0.33333333      -0.16666667       0.16666667 </v>
    <v>       0.16666667       0.33333333       0.50000000 </v>
    <v>      -0.16666667      -0.33333333       0.50000000 </v>
    <v>      -0.33333333       0.33333333       0.16666667 </v>
    <v>       0.33333333      -0.33333333      -0.16666667 </v>
    <v>       0.16666667      -0.33333333       0.33333333 </v>
    <v>      -0.16666667       0.33333333      -0.33333333 </v>
    <v>       0.33333333       0.16666667      -0.33333333 </v>
    <v>      -0.33333333      -0.16666667       0.33333333 </v>
    <v>      -0.33333333       0.33333333       0.50000000 </v>
    <v>       0.33333333      -0.33333333       0.50000000 </v>
    <v>       0.16666667       0.50000000      -0.16666667 </v>
    <v>      -0.16666667       0.50000000       0.16666667 </v>
    <v>       0.33333333      -0.16666667      -0.33333333 </v>
    <v>      -0.33333333       0.16666667       0.33333333 </v>
    <v>       0.50000000      -0.33333333       0.33333333 </v>
    <v>       0.50000000       0.33333333      -0.33333333 </v>
    <v>      -0.16666667       0.16666667       0.50000000 </v>
    <v>       0.16666667      -0.16666667       0.50000000 </v>
    <v>      -0.33333333       0.33333333      -0.16666667 </v>
    <v>       0.33333333      -0.33333333       0.16666667 </v>
    <v>       0.33333333       0.50000000      -0.33333333 </v>
    <v>      -0.33333333       0.50000000       0.33333333 </v>
    <v>       0.50000000      -0.16666667       0.16666667 </v>
    <v>       0.50000000       0.16666667      -0.16666667 </v>
    <v>      -0.16666667      -0.33333333       0.33333333 </v>
    <v>       0.16666667       0.33333333      -0.33333333 </v>
    <v>      -0.33333333       0.50000000       0.16666667 </v>
    <v>       0.33333333       0.50000000      -0.16666667 </v>
    <v>       0.16666667      -0.33333333       0.50000000 </v>
    <v>      -0.16666667       0.33333333       0.50000000 </v>
    <v>       0.50000000       0.16666667      -0.33333333 </v>
    <v>       0.50000000      -0.16666667       0.33333333 </v>
    <v>       0.50000000       0.33333333      -0.16666667 </v>
    <v>       0.50000000      -0.33333333       0.16666667 </v>
    <v>      -0.33333333       0.16666667       0.50000000 </v>
    <v>       0.33333333      -0.16666667       0.50000000 </v>
    <v>       0.16666667       0.50000000      -0.33333333 </v>
    <v>      -0.16666667       0.50000000       0.33333333 </v>
   </varray>
   <varray name="weights" >
    <v>       0.00462963 </v>
    <v>       0.00462963 </v>
    <v>       0.00462963 </v>
    <v>       0.00462963 </v>
    <v>       0.00462963 </v>
    <v>       0.00462963 </v>
    <v>       0.00462963 </v>
    <v>       0.00462963 </v>
    <v>       0.00462963 </v>
    <v>       0.00462963 </v>
    <v>       0.00462963 </v>
    <v>       0.00462963 </v>
    <v>       0.00462963 </v>
    <v>       0.00462963 </v>
    <v>       0.00462963 </v>
    <v>       0.00462963 </v>
    <v>       0.00462963 </v>
    <v>       0.00462963 </v>
    <v>       0.00462963 </v>
    <v>       0.00462963 </v>
    <v>       0.00462963 </v>
    <v>       0.00462963 </v>
    <v>       0.00462963 </v>
    <v>       0.00462963 </v>
    <v>       0.00462963 </v>
    <v>       0.00462963 </v>
    <v>       0.00462963 </v>
    <v>       0.00462963 </v>
    <v>       0.00462963 </v>
    <v>       0.00462963 </v>
    <v>       0.00462963 </v>
    <v>       0.00462963 </v>
    <v>       0.00462963 </v>
    <v>       0.00462963 </v>
    <v>       0.00462963 </v>
    <v>       0.00462963 </v>
    <v>       0.00462963 </v>
    <v>       0.00462963 </v>
    <v>       0.00462963 </v>
    <v>       0.00462963 </v>
    <v>       0.00462963 </v>
    <v>       0.00462963 </v>
    <v>       0.00462963 </v>
    <v>       0.00462963 </v>
    <v>       0.00462963 </v>
    <v>       0.00462963 </v>
    <v>       0.00462963 </v>
    <v>       0.00462963 </v>
    <v>       0.00462963 </v>
    <v>       0.00462963 </v>
    <v>       0.00462963 </v>
    <v>       0.00462963 </v>
    <v>       0.00462963 </v>
    <v>       0.00462963 </v>
    <v>       0.00462963 </v>
    <v>       0.00462963 </v>
    <v>       0.00462963 </v>
    <v>       0.00462963 </v>
    <v>       0.00462963 </v>
    <v>       0.00462963 </v>
    <v>       0.00462963 </v>
    <v>       0.00462963 </v>
    <v>       0.00462963 </v>
    <v>       0.00462963 </v>
    <v>       0.00462963 </v>
    <v>       0.00462963 </v>
    <v>       0.00462963 </v>
    <v>       0.00462963 </v>
    <v>       0.00462963 </v>
    <v>       0.00462963 </v>
    <v>       0.00462963 </v>
    <v>       0.00462963 </v>
    <v>       0.00462963 </v>
    <v>       0.00462963 </v>
    <v>       0.00462963 </v>
    <v>       0.00462963 </v>
    <v>       0.00462963 </v>
    <v>       0.00462963 </v>
    <v>       0.00462963 </v>
    <v>       0.00462963 </v>
    <v>       0.00462963 </v>
    <v>       0.00462963 </v>
    <v>       0.00462963 </v>
    <v>       0.00462963 </v>
    <v>       0.00462963 </v>
    <v>       0.00462963 </v>
    <v>       0.00462963 </v>
    <v>       0.00462963 </v>
    <v>       0.00462963 </v>
    <v>       0.00462963 </v>
    <v>       0.00462963 </v>
    <v>       0.00462963 </v>
    <v>       0.00462963 </v>
    <v>       0.00462963 </v>
    <v>       0.00462963 </v>
    <v>       0.00462963 </v>
    <v>       0.00462963 </v>
    <v>       0.00462963 </v>
    <v>       0.00462963 </v>
    <v>       0.00462963 </v>
    <v>       0.00462963 </v>
    <v>       0.00462963 </v>
    <v>       0.00462963 </v>
    <v>       0.00462963 </v>
    <v>       0.00462963 </v>
    <v>       0.00462963 </v>
    <v>       0.00462963 </v>
    <v>       0.00462963 </v>
    <v>       0.00462963 </v>
    <v>       0.00462963 </v>
    <v>       0.00462963 </v>
    <v>       0.00462963 </v>
    <v>       0.00462963 </v>
    <v>       0.00462963 </v>
    <v>       0.00462963 </v>
    <v>       0.00462963 </v>
    <v>       0.00462963 </v>
    <v>       0.00462963 </v>
    <v>       0.00462963 </v>
    <v>       0.00462963 </v>
    <v>       0.00462963 </v>
    <v>       0.00462963 </v>
    <v>       0.00462963 </v>
    <v>       0.00462963 </v>
    <v>       0.00462963 </v>
    <v>       0.00462963 </v>
    <v>       0.00462963 </v>
    <v>       0.00462963 </v>
    <v>       0.00462963 </v>
    <v>       0.00462963 </v>
    <v>       0.00462963 </v>
    <v>       0.00462963 </v>
    <v>       0.00462963 </v>
    <v>       0.00462963 </v>
    <v>       0.00462963 </v>
    <v>       0.00462963 </v>
    <v>       0.00462963 </v>
    <v>       0.00462963 </v>
    <v>       0.00462963 </v>
    <v>       0.00462963 </v>
    <v>       0.00462963 </v>
    <v>       0.00462963 </v>
    <v>       0.00462963 </v>
    <v>       0.00462963 </v>
    <v>       0.00462963 </v>
    <v>       0.00462963 </v>
    <v>       0.00462963 </v>
    <v>       0.00462963 </v>
    <v>       0.00462963 </v>
    <v>       0.00462963 </v>
    <v>       0.00462963 </v>
    <v>       0.00462963 </v>
    <v>       0.00462963 </v>
    <v>       0.00462963 </v>
    <v>       0.00462963 </v>
    <v>       0.00462963 </v>
    <v>       0.00462963 </v>
    <v>       0.00462963 </v>
    <v>       0.00462963 </v>
    <v>       0.00462963 </v>
    <v>       0.00462963 </v>
    <v>       0.00462963 </v>
    <v>       0.00462963 </v>
    <v>       0.00462963 </v>
    <v>       0.00462963 </v>
    <v>       0.00462963 </v>
    <v>       0.00462963 </v>
    <v>       0.00462963 </v>
    <v>       0.00462963 </v>
    <v>       0.00462963 </v>
    <v>       0.00462963 </v>
    <v>       0.00462963 </v>
    <v>       0.00462963 </v>
    <v>       0.00462963 </v>
    <v>       0.00462963 </v>
    <v>       0.00462963 </v>
    <v>       0.00462963 </v>
    <v>       0.00462963 </v>
    <v>       0.00462963 </v>
    <v>       0.00462963 </v>
    <v>       0.00462963 </v>
    <v>       0.00462963 </v>
    <v>       0.00462963 </v>
    <v>       0.00462963 </v>
    <v>       0.00462963 </v>
    <v>       0.00462963 </v>
    <v>       0.00462963 </v>
    <v>       0.00462963 </v>
    <v>       0.00462963 </v>
    <v>       0.00462963 </v>
    <v>       0.00462963 </v>
    <v>       0.00462963 </v>
    <v>       0.00462963 </v>
    <v>       0.00462963 </v>
    <v>       0.00462963 </v>
    <v>       0.00462963 </v>
    <v>       0.00462963 </v>
    <v>       0.00462963 </v>
    <v>       0.00462963 </v>
    <v>       0.00462963 </v>
    <v>       0.00462963 </v>
    <v>       0.00462963 </v>
    <v>       0.00462963 </v>
    <v>       0.00462963 </v>
    <v>       0.00462963 </v>
    <v>       0.00462963 </v>
    <v>       0.00462963 </v>
    <v>       0.00462963 </v>
    <v>       0.00462963 </v>
    <v>       0.00462963 </v>
    <v>       0.00462963 </v>
    <v>       0.00462963 </v>
    <v>       0.00462963 </v>
    <v>       0.00462963 </v>
    <v>       0.00462963 </v>
    <v>       0.00462963 </v>
   </varray>
  </kpoints>
  <dielectricfunction comment="HEAD OF MICROSCOPIC DIELECTRIC TENSOR (INDEPENDENT PARTICLE)">
   <imag>
    <array>
     <dimension dim="1">gridpoints</dimension>
     <field>energy</field>
     <field>xx</field>
     <field>yy</field>
     <field>zz</field>
     <field>xy</field>
     <field>yz</field>
     <field>zx</field>
     <set>
      <r>     0.0000     0.0000     0.0000    -0.0000    -0.0000     0.0000     0.0000 </r>
      <r>     0.4339     0.3272     0.3272     0.3272     0.0000     0.0000     0.0000 </r>
      <r>     0.8662     0.7283     0.7283     0.7283     0.0000     0.0000     0.0000 </r>
      <r>     1.2953     1.3297     1.3297     1.3297     0.0000     0.0000     0.0000 </r>
      <r>     1.7198     2.4603     2.4603     2.4603     0.0000    -0.0000     0.0000 </r>
      <r>     2.1384     5.2698     5.2698     5.2698     0.0000    -0.0000    -0.0000 </r>
      <r>     2.5507    12.0734    12.0734    12.0734     0.0000    -0.0000    -0.0000 </r>
      <r>     2.9557    20.3343    20.3343    20.3343     0.0000     0.0000     0.0000 </r>
      <r>     3.3537    24.6766    24.6766    24.6766     0.0000     0.0000     0.0000 </r>
      <r>     3.7445    32.5971    32.5971    32.5971     0.0000     0.0000     0.0000 </r>
      <r>     4.1284    26.4677    26.4677    26.4677     0.0000    -0.0000     0.0000 </r>
      <r>     4.5060    15.5993    15.5993    15.5993     0.0000    -0.0000     0.0000 </r>
      <r>     4.8781     9.8540     9.8540     9.8540    -0.0000    -0.0000    -0.0000 </r>
      <r>     5.2456     7.0752     7.0752     7.0752     0.0000    -0.0000    -0.0000 </r>
      <r>     5.6095     6.4332     6.4332     6.4332     0.0000    -0.0000     0.0000 </r>
      <r>     5.9708     7.0325     7.0325     7.0325     0.0000    -0.0000     0.0000 </r>
      <r>     6.3309     7.9447     7.9447     7.9447     0.0000    -0.0000     0.0000 </r>
      <r>     6.6909     6.9723     6.9723     6.9723     0.0000    -0.0000     0.0000 </r>
      <r>     7.0524     5.2615     5.2615     5.2615     0.0000    -0.0000    -0.0000 </r>
      <r>     7.4168     3.9815     3.9815     3.9815    -0.0000     0.0000    -0.0000 </r>
      <r>     7.7858     2.8596     2.8596     2.8596    -0.0000     0.0000    -0.0000 </r>
      <r>     8.1611     1.9966     1.9966     1.9966    -0.0000    -0.0000    -0.0000 </r>
      <r>     8.5448     1.5712     1.5712     1.5712    -0.0000    -0.0000    -0.0000 </r>
      <r>     8.9390     1.4720     1.4720     1.4720    -0.0000    -0.0000    -0.0000 </r>
      <r>     9.3459     1.3127     1.3127     1.3127    -0.0000    -0.0000    -0.0000 </r>
      <r>     9.7686     1.1834     1.1834     1.1834    -0.0000    -0.0000    -0.0000 </r>
      <r>    10.2096     1.1031     1.1031     1.1031    -0.0000    -0.0000    -0.0000 </r>
      <r>    10.6734     0.9326     0.9326     0.9326    -0.0000    -0.0000    -0.0000 </r>
      <r>    11.1635     0.7352     0.7352     0.7352    -0.0000     0.0000     0.0000 </r>
      <r>    11.6848     0.5566     0.5566     0.5566    -0.0000     0.0000     0.0000 </r>
      <r>    12.2430     0.4878     0.4878     0.4878    -0.0000     0.0000    -0.0000 </r>
      <r>    12.8459     0.4867     0.4867     0.4867     0.0000    -0.0000     0.0000 </r>
      <r>    13.5013     0.4724     0.4724     0.4724    -0.0000    -0.0000    -0.0000 </r>
      <r>    14.2201     0.3680     0.3680     0.3680    -0.0000     0.0000    -0.0000 </r>
      <r>    15.0150     0.2807     0.2807     0.2807     0.0000    -0.0000    -0.0000 </r>
      <r>    15.9035     0.1997     0.1997     0.1997     0.0000    -0.0000    -0.0000 </r>
      <r>    16.9060     0.1402     0.1402     0.1402    -0.0000    -0.0000    -0.0000 </r>
      <r>    18.0505     0.1143     0.1143     0.1143    -0.0000     0.0000    -0.0000 </r>
      <r>    19.3746     0.0955     0.0955     0.0955    -0.0000     0.0000    -0.0000 </r>
      <r>    20.9277     0.0671     0.0671     0.0671     0.0000     0.0000     0.0000 </r>
      <r>    22.7800     0.0439     0.0439     0.0439    -0.0000    -0.0000    -0.0000 </r>
      <r>    25.0309     0.0360     0.0360     0.0360    -0.0000     0.0000    -0.0000 </r>
      <r>    27.8293     0.0287     0.0287     0.0287     0.0000    -0.0000     0.0000 </r>
      <r>    31.4039     0.0256     0.0256     0.0256     0.0000    -0.0000     0.0000 </r>
      <r>    36.1296     0.0237     0.0237     0.0237     0.0000    -0.0000     0.0000 </r>
      <r>    42.6641     0.0182     0.0182     0.0182    -0.0000    -0.0000    -0.0000 </r>
      <r>    52.2733     0.0110     0.0110     0.0110    -0.0000    -0.0000    -0.0000 </r>
      <r>    67.7540     0.0049     0.0049     0.0049    -0.0000    -0.0000    -0.0000 </r>
      <r>    96.7418     0.0003     0.0003     0.0003    -0.0000    -0.0000    -0.0000 </r>
      <r>   170.1783     0.0000     0.0000     0.0000    -0.0000    -0.0000    -0.0000 </r>
     </set>
    </array>
   </imag>
   <real>
    <array>
     <dimension dim="1">gridpoints</dimension>
     <field>energy</field>
     <field>xx</field>
     <field>yy</field>
     <field>zz</field>
     <field>xy</field>
     <field>yz</field>
     <field>zx</field>
     <set>
      <r>     0.0000    14.8743    14.8743    14.8743    -0.0000    -0.0000    -0.0000 </r>
      <r>     0.4339    15.0701    15.0701    15.0701    -0.0000    -0.0000    -0.0000 </r>
      <r>     0.8662    15.6937    15.6937    15.6937    -0.0000    -0.0000    -0.0000 </r>
      <r>     1.2953    16.8712    16.8712    16.8712    -0.0000    -0.0000    -0.0000 </r>
      <r>     1.7198    18.8795    18.8795    18.8795    -0.0000    -0.0000    -0.0000 </r>
      <r>     2.1384    22.0152    22.0152    22.0152    -0.0000    -0.0000    -0.0000 </r>
      <r>     2.5507    24.3968    24.3968    24.3968     0.0000    -0.0000    -0.0000 </r>
      <r>     2.9557    20.5446    20.5446    20.5446     0.0000    -0.0000     0.0000 </r>
      <r>     3.3537    16.4811    16.4811    16.4811    -0.0000    -0.0000    -0.0000 </r>
      <r>     3.7445     6.2291     6.2291     6.2291    -0.0000    -0.0000    -0.0000 </r>
      <r>     4.1284    -8.1311    -8.1311    -8.1311    -0.0000    -0.0000    -0.0000 </r>
      <r>     4.5060   -10.9748   -10.9748   -10.9748    -0.0000    -0.0000    -0.0000 </r>
      <r>     4.8781    -8.6068    -8.6068    -8.6068    -0.0000    -0.0000    -0.0000 </r>
      <r>     5.2456    -6.0475    -6.0475    -6.0475    -0.0000    -0.0000    -0.0000 </r>
      <r>     5.6095    -3.8165    -3.8165    -3.8165    -0.0000    -0.0000    -0.0000 </r>
      <r>     5.9708    -2.7226    -2.7226    -2.7226    -0.0000    -0.0000    -0.0000 </r>
      <r>     6.3309    -3.5215    -3.5215    -3.5215    -0.0000    -0.0000    -0.0000 </r>
      <r>     6.6909    -5.0906    -5.0906    -5.0906    -0.0000    -0.0000    -0.0000 </r>
      <r>     7.0524    -5.4308    -5.4308    -5.4308    -0.0000    -0.0000    -0.0000 </r>
      <r>     7.4168    -5.1729    -5.1729    -5.1729    -0.0000    -0.0000    -0.0000 </r>
      <r>     7.7858    -4.7468    -4.7468    -4.7468    -0.0000    -0.0000    -0.0000 </r>
      <r>     8.1611    -4.0243    -4.0243    -4.0243    -0.0000    -0.0000    -0.0000 </r>
      <r>     8.5448    -3.2247    -3.2247    -3.2247    -0.0000    -0.0000    -0.0000 </r>
      <r>     8.9390    -2.6879    -2.6879    -2.6879    -0.0000    -0.0000    -0.0000 </r>
      <r>     9.3459    -2.3598    -2.3598    -2.3598    -0.0000    -0.0000    -0.0000 </r>
      <r>     9.7686    -2.0335    -2.0335    -2.0335    -0.0000    -0.0000    -0.0000 </r>
      <r>    10.2096    -1.8203    -1.8203    -1.8203    -0.0000    -0.0000    -0.0000 </r>
      <r>    10.6734    -1.6639    -1.6639    -1.6639    -0.0000    -0.0000    -0.0000 </r>
      <r>    11.1635    -1.4587    -1.4587    -1.4587    -0.0000    -0.0000    -0.0000 </r>
      <r>    11.6848    -1.1922    -1.1922    -1.1922    -0.0000    -0.0000    -0.0000 </r>
      <r>    12.2430    -0.9079    -0.9079    -0.9079    -0.0000    -0.0000    -0.0000 </r>
      <r>    12.8459    -0.7037    -0.7037    -0.7037    -0.0000    -0.0000    -0.0000 </r>
      <r>    13.5013    -0.5962    -0.5962    -0.5962    -0.0000    -0.0000    -0.0000 </r>
      <r>    14.2201    -0.4927    -0.4927    -0.4927    -0.0000    -0.0000    -0.0000 </r>
      <r>    15.0150    -0.3446    -0.3446    -0.3446    -0.0000    -0.0000    -0.0000 </r>
      <r>    15.9035    -0.1947    -0.1947    -0.1947    -0.0000    -0.0000    -0.0000 </r>
      <r>    16.9060    -0.0319    -0.0319    -0.0319    -0.0000    -0.0000    -0.0000 </r>
      <r>    18.0505     0.1183     0.1183     0.1183    -0.0000    -0.0000    -0.0000 </r>
      <r>    19.3746     0.2401     0.2401     0.2401    -0.0000    -0.0000    -0.0000 </r>
      <r>    20.9277     0.3511     0.3511     0.3511    -0.0000    -0.0000    -0.0000 </r>
      <r>    22.7800     0.4641     0.4641     0.4641    -0.0000    -0.0000    -0.0000 </r>
      <r>    25.0309     0.5673     0.5673     0.5673    -0.0000    -0.0000    -0.0000 </r>
      <r>    27.8293     0.6557     0.6557     0.6557    -0.0000    -0.0000    -0.0000 </r>
      <r>    31.4039     0.7337     0.7337     0.7337    -0.0000    -0.0000    -0.0000 </r>
      <r>    36.1296     0.7983     0.7983     0.7983    -0.0000    -0.0000    -0.0000 </r>
      <r>    42.6641     0.8519     0.8519     0.8519    -0.0000    -0.0000    -0.0000 </r>
      <r>    52.2733     0.8983     0.8983     0.8983    -0.0000    -0.0000    -0.0000 </r>
      <r>    67.7540     0.9376     0.9376     0.9376    -0.0000    -0.0000    -0.0000 </r>
      <r>    96.7418     0.9689     0.9689     0.9689     0.0000     0.0000     0.0000 </r>
      <r>   170.1783     0.9903     0.9903     0.9903     0.0000     0.0000     0.0000 </r>
     </set>
    </array>
   </real>
  </dielectricfunction>
  <varray name="epsilon_diag_mic" >
   <v>       0.00000000      14.87432227 </v>
   <v>       2.00419819       1.76461408 </v>
   <v>       4.00839639       1.09340269 </v>
   <v>       6.01259458       1.00312528 </v>
   <v>       8.01679277       1.00003460 </v>
   <v>       8.01679277       1.00003460 </v>
   <v>       6.01259458       1.00312528 </v>
   <v>       4.00839639       1.09340270 </v>
   <v>       2.00419819       1.76461408 </v>
   <v>       2.00419819       1.76461572 </v>
   <v>       2.31424873       1.59400816 </v>
   <v>       3.83774736       1.11504933 </v>
   <v>       5.66872853       1.00620429 </v>
   <v>       7.58777189       1.00015901 </v>
   <v>       6.94274620       1.00046772 </v>
   <v>       5.04378818       1.01894984 </v>
   <v>       3.27284194       1.23515107 </v>
   <v>       4.00839639       1.09341131 </v>
   <v>       3.83774736       1.11505383 </v>
   <v>       4.62849746       1.03562933 </v>
   <v>       6.01259458       1.00298858 </v>
   <v>       7.67549472       1.00013876 </v>
   <v>       8.26352084       1.00000251 </v>
   <v>       6.54568389       1.00099634 </v>
   <v>       5.04378818       1.01895036 </v>
   <v>       6.01259458       1.00312739 </v>
   <v>       5.66872853       1.00620765 </v>
   <v>       6.01259458       1.00298876 </v>
   <v>       6.94274620       1.00048248 </v>
   <v>       8.26352084       1.00000257 </v>
   <v>       8.26352084       1.00000251 </v>
   <v>       6.94274620       1.00046786 </v>
   <v>       8.01679277       1.00003462 </v>
   <v>       7.58777189       1.00015905 </v>
   <v>       7.67549472       1.00013877 </v>
   <v>       8.26352084       1.00000257 </v>
   <v>       8.01679277       1.00003462 </v>
   <v>       8.26352084       1.00000257 </v>
   <v>       7.67549472       1.00013877 </v>
   <v>       7.58777189       1.00015905 </v>
   <v>       6.01259458       1.00312739 </v>
   <v>       6.94274620       1.00046786 </v>
   <v>       8.26352084       1.00000251 </v>
   <v>       8.26352084       1.00000257 </v>
   <v>       6.94274620       1.00048248 </v>
   <v>       6.01259458       1.00298876 </v>
   <v>       5.66872853       1.00620765 </v>
   <v>       4.00839639       1.09341132 </v>
   <v>       5.04378818       1.01895035 </v>
   <v>       6.54568389       1.00099633 </v>
   <v>       8.26352084       1.00000251 </v>
   <v>       7.67549472       1.00013876 </v>
   <v>       6.01259458       1.00298858 </v>
   <v>       4.62849746       1.03562932 </v>
   <v>       3.83774736       1.11505383 </v>
   <v>       2.00419819       1.76461572 </v>
   <v>       3.27284194       1.23515101 </v>
   <v>       5.04378818       1.01894984 </v>
   <v>       6.94274620       1.00046772 </v>
   <v>       7.58777189       1.00015901 </v>
   <v>       5.66872853       1.00620430 </v>
   <v>       3.83774736       1.11504934 </v>
   <v>       2.31424873       1.59400816 </v>
   <v>       2.00419819       1.76461572 </v>
   <v>       2.31424873       1.59400816 </v>
   <v>       3.83774736       1.11504931 </v>
   <v>       5.66872853       1.00620429 </v>
   <v>       7.58777189       1.00015901 </v>
   <v>       6.94274620       1.00046772 </v>
   <v>       5.04378818       1.01894983 </v>
   <v>       3.27284194       1.23515101 </v>
   <v>       2.31424873       1.59400845 </v>
   <v>       2.00419819       1.76461079 </v>
   <v>       3.27284194       1.23511593 </v>
   <v>       5.04378818       1.01894319 </v>
   <v>       6.94274620       1.00046753 </v>
   <v>       7.58777189       1.00015898 </v>
   <v>       5.66872853       1.00620493 </v>
   <v>       3.83774736       1.11504547 </v>
   <v>       3.83774736       1.11505725 </v>
   <v>       3.27284194       1.23513336 </v>
   <v>       3.83774736       1.11504106 </v>
   <v>       5.17481748       1.01490359 </v>
   <v>       6.84564007       1.00056819 </v>
   <v>       6.84564007       1.00056843 </v>
   <v>       5.17481748       1.01490847 </v>
   <v>       5.66872853       1.00620826 </v>
   <v>       5.04378818       1.01894968 </v>
   <v>       5.17481748       1.01490651 </v>
   <v>       6.01259458       1.00298822 </v>
   <v>       7.31829707       1.00025214 </v>
   <v>       8.34414247       1.00000011 </v>
   <v>       6.84564007       1.00056869 </v>
   <v>       7.58777189       1.00015905 </v>
   <v>       6.94274620       1.00046799 </v>
   <v>       6.84564007       1.00056857 </v>
   <v>       7.31829707       1.00025214 </v>
   <v>       8.26352084       1.00000257 </v>
   <v>       6.94274620       1.00046780 </v>
   <v>       7.58777189       1.00015904 </v>
   <v>       8.26352084       1.00000257 </v>
   <v>       7.31829707       1.00025210 </v>
   <v>       6.84564007       1.00056851 </v>
   <v>       5.04378818       1.01894997 </v>
   <v>       5.66872853       1.00620491 </v>
   <v>       6.84564007       1.00056840 </v>
   <v>       8.34414247       1.00000011 </v>
   <v>       7.31829707       1.00025212 </v>
   <v>       6.01259458       1.00298771 </v>
   <v>       5.17481748       1.01490802 </v>
   <v>       3.27284194       1.23515132 </v>
   <v>       3.83774736       1.11504582 </v>
   <v>       5.17481748       1.01490814 </v>
   <v>       6.84564007       1.00056845 </v>
   <v>       6.84564007       1.00056845 </v>
   <v>       5.17481748       1.01490815 </v>
   <v>       3.83774736       1.11504581 </v>
   <v>       4.00839639       1.09341131 </v>
   <v>       3.83774736       1.11505384 </v>
   <v>       4.62849746       1.03562932 </v>
   <v>       6.01259458       1.00298857 </v>
   <v>       7.67549472       1.00013876 </v>
   <v>       8.26352084       1.00000251 </v>
   <v>       6.54568389       1.00099633 </v>
   <v>       5.04378818       1.01895035 </v>
   <v>       3.83774736       1.11505724 </v>
   <v>       3.27284194       1.23513336 </v>
   <v>       3.83774736       1.11504107 </v>
   <v>       5.17481748       1.01490359 </v>
   <v>       6.84564007       1.00056819 </v>
   <v>       6.84564007       1.00056843 </v>
   <v>       5.17481748       1.01490846 </v>
   <v>       4.62849746       1.03563312 </v>
   <v>       3.83774736       1.11503642 </v>
   <v>       4.00839639       1.09338546 </v>
   <v>       5.04378818       1.01894216 </v>
   <v>       6.54568389       1.00099579 </v>
   <v>       8.26352084       1.00000251 </v>
   <v>       7.67549472       1.00013873 </v>
   <v>       6.01259458       1.00298782 </v>
   <v>       6.01259458       1.00298905 </v>
   <v>       5.17481748       1.01490567 </v>
   <v>       5.04378818       1.01894321 </v>
   <v>       5.66872853       1.00620034 </v>
   <v>       6.84564007       1.00056797 </v>
   <v>       8.34414247       1.00000011 </v>
   <v>       7.31829707       1.00025216 </v>
   <v>       7.67549472       1.00013877 </v>
   <v>       6.84564007       1.00056866 </v>
   <v>       6.54568389       1.00099614 </v>
   <v>       6.84564007       1.00056802 </v>
   <v>       7.67549472       1.00013873 </v>
   <v>       8.26352084       1.00000251 </v>
   <v>       8.34414247       1.00000011 </v>
   <v>       8.26352084       1.00000251 </v>
   <v>       8.34414247       1.00000011 </v>
   <v>       6.54568389       1.00099618 </v>
   <v>       6.84564007       1.00056839 </v>
   <v>       7.67549472       1.00013874 </v>
   <v>       7.67549472       1.00013874 </v>
   <v>       6.84564007       1.00056839 </v>
   <v>       5.04378818       1.01894998 </v>
   <v>       5.17481748       1.01490802 </v>
   <v>       6.01259458       1.00298771 </v>
   <v>       7.31829707       1.00025212 </v>
   <v>       8.34414247       1.00000011 </v>
   <v>       6.84564007       1.00056840 </v>
   <v>       5.66872853       1.00620491 </v>
   <v>       6.01259458       1.00312739 </v>
   <v>       5.66872853       1.00620765 </v>
   <v>       6.01259458       1.00298876 </v>
   <v>       6.94274620       1.00048248 </v>
   <v>       8.26352084       1.00000257 </v>
   <v>       8.26352084       1.00000251 </v>
   <v>       6.94274620       1.00046786 </v>
   <v>       5.66872853       1.00620826 </v>
   <v>       5.04378818       1.01894968 </v>
   <v>       5.17481748       1.01490651 </v>
   <v>       6.01259458       1.00298822 </v>
   <v>       7.31829707       1.00025214 </v>
   <v>       8.34414247       1.00000011 </v>
   <v>       6.84564007       1.00056869 </v>
   <v>       6.01259458       1.00298905 </v>
   <v>       5.17481748       1.01490567 </v>
   <v>       5.04378818       1.01894322 </v>
   <v>       5.66872853       1.00620035 </v>
   <v>       6.84564007       1.00056797 </v>
   <v>       8.34414247       1.00000011 </v>
   <v>       7.31829707       1.00025216 </v>
   <v>       6.94274620       1.00048245 </v>
   <v>       6.01259458       1.00298746 </v>
   <v>       5.66872853       1.00619821 </v>
   <v>       6.01259458       1.00312107 </v>
   <v>       6.94274620       1.00046725 </v>
   <v>       8.26352084       1.00000251 </v>
   <v>       8.26352084       1.00000257 </v>
   <v>       8.26352084       1.00000257 </v>
   <v>       7.31829707       1.00025217 </v>
   <v>       6.84564007       1.00056798 </v>
   <v>       6.94274620       1.00046718 </v>
   <v>       7.58777189       1.00015892 </v>
   <v>       8.34414247       1.00000011 </v>
   <v>       8.26352084       1.00000251 </v>
   <v>       8.26352084       1.00000251 </v>
   <v>       8.34414247       1.00000011 </v>
   <v>       6.94274620       1.00046780 </v>
   <v>       6.84564007       1.00056851 </v>
   <v>       7.31829707       1.00025210 </v>
   <v>       8.26352084       1.00000257 </v>
   <v>       7.58777189       1.00015904 </v>
   <v>       8.01679277       1.00003462 </v>
   <v>       7.58777189       1.00015905 </v>
   <v>       7.67549472       1.00013877 </v>
   <v>       8.26352084       1.00000257 </v>
   <v>       7.58777189       1.00015905 </v>
   <v>       6.94274620       1.00046799 </v>
   <v>       6.84564007       1.00056858 </v>
   <v>       7.31829707       1.00025214 </v>
   <v>       8.26352084       1.00000257 </v>
   <v>       7.67549472       1.00013877 </v>
   <v>       6.84564007       1.00056866 </v>
   <v>       6.54568389       1.00099614 </v>
   <v>       6.84564007       1.00056802 </v>
   <v>       7.67549472       1.00013873 </v>
   <v>       8.26352084       1.00000257 </v>
   <v>       7.31829707       1.00025217 </v>
   <v>       6.84564007       1.00056798 </v>
   <v>       6.94274620       1.00046718 </v>
   <v>       7.58777189       1.00015892 </v>
   <v>       8.26352084       1.00000257 </v>
   <v>       7.67549472       1.00013871 </v>
   <v>       7.58777189       1.00015890 </v>
   <v>       8.01679277       1.00003456 </v>
   <v>       8.26352084       1.00000251 </v>
   <v>       8.34414247       1.00000011 </v>
   <v>       8.34414247       1.00000011 </v>
   <v>       8.26352084       1.00000251 </v>
   <v>       8.26352084       1.00000251 </v>
   <v>       8.34414247       1.00000011 </v>
   <v>       8.34414247       1.00000011 </v>
   <v>       8.26352084       1.00000251 </v>
   <v>       8.01679277       1.00003462 </v>
   <v>       8.26352084       1.00000257 </v>
   <v>       7.67549472       1.00013877 </v>
   <v>       7.58777189       1.00015905 </v>
   <v>       8.01679277       1.00003456 </v>
   <v>       7.58777189       1.00015890 </v>
   <v>       7.67549472       1.00013871 </v>
   <v>       8.26352084       1.00000257 </v>
   <v>       8.26352084       1.00000257 </v>
   <v>       7.58777189       1.00015892 </v>
   <v>       6.94274620       1.00046718 </v>
   <v>       6.84564007       1.00056798 </v>
   <v>       7.31829707       1.00025217 </v>
   <v>       7.67549472       1.00013877 </v>
   <v>       7.67549472       1.00013873 </v>
   <v>       6.84564007       1.00056802 </v>
   <v>       6.54568389       1.00099614 </v>
   <v>       6.84564007       1.00056866 </v>
   <v>       7.58777189       1.00015905 </v>
   <v>       8.26352084       1.00000257 </v>
   <v>       7.31829707       1.00025214 </v>
   <v>       6.84564007       1.00056858 </v>
   <v>       6.94274620       1.00046799 </v>
   <v>       6.01259458       1.00312739 </v>
   <v>       6.94274620       1.00046786 </v>
   <v>       8.26352084       1.00000251 </v>
   <v>       8.26352084       1.00000257 </v>
   <v>       6.94274620       1.00048248 </v>
   <v>       6.01259458       1.00298876 </v>
   <v>       5.66872853       1.00620766 </v>
   <v>       6.94274620       1.00046780 </v>
   <v>       7.58777189       1.00015904 </v>
   <v>       8.26352084       1.00000257 </v>
   <v>       7.31829707       1.00025210 </v>
   <v>       6.84564007       1.00056851 </v>
   <v>       8.26352084       1.00000251 </v>
   <v>       8.34414247       1.00000011 </v>
   <v>       8.26352084       1.00000251 </v>
   <v>       8.34414247       1.00000011 </v>
   <v>       8.26352084       1.00000257 </v>
   <v>       7.58777189       1.00015892 </v>
   <v>       6.94274620       1.00046718 </v>
   <v>       6.84564007       1.00056798 </v>
   <v>       7.31829707       1.00025217 </v>
   <v>       6.94274620       1.00048245 </v>
   <v>       8.26352084       1.00000257 </v>
   <v>       8.26352084       1.00000251 </v>
   <v>       6.94274620       1.00046725 </v>
   <v>       6.01259458       1.00312108 </v>
   <v>       5.66872853       1.00619821 </v>
   <v>       6.01259458       1.00298746 </v>
   <v>       6.01259458       1.00298905 </v>
   <v>       7.31829707       1.00025216 </v>
   <v>       8.34414247       1.00000011 </v>
   <v>       6.84564007       1.00056797 </v>
   <v>       5.66872853       1.00620034 </v>
   <v>       5.04378818       1.01894322 </v>
   <v>       5.17481748       1.01490567 </v>
   <v>       5.66872853       1.00620826 </v>
   <v>       6.84564007       1.00056869 </v>
   <v>       8.34414247       1.00000011 </v>
   <v>       7.31829707       1.00025214 </v>
   <v>       6.01259458       1.00298821 </v>
   <v>       5.17481748       1.01490652 </v>
   <v>       5.04378818       1.01894968 </v>
   <v>       4.00839639       1.09341132 </v>
   <v>       5.04378818       1.01895036 </v>
   <v>       6.54568389       1.00099634 </v>
   <v>       8.26352084       1.00000251 </v>
   <v>       7.67549472       1.00013876 </v>
   <v>       6.01259458       1.00298858 </v>
   <v>       4.62849746       1.03562932 </v>
   <v>       3.83774736       1.11505385 </v>
   <v>       5.04378818       1.01894996 </v>
   <v>       5.66872853       1.00620491 </v>
   <v>       6.84564007       1.00056840 </v>
   <v>       8.34414247       1.00000011 </v>
   <v>       7.31829707       1.00025212 </v>
   <v>       6.01259458       1.00298771 </v>
   <v>       5.17481748       1.01490801 </v>
   <v>       6.54568389       1.00099618 </v>
   <v>       6.84564007       1.00056839 </v>
   <v>       7.67549472       1.00013874 </v>
   <v>       7.67549472       1.00013874 </v>
   <v>       6.84564007       1.00056839 </v>
   <v>       8.26352084       1.00000251 </v>
   <v>       8.34414247       1.00000011 </v>
   <v>       8.34414247       1.00000011 </v>
   <v>       8.26352084       1.00000251 </v>
   <v>       7.67549472       1.00013877 </v>
   <v>       7.67549472       1.00013873 </v>
   <v>       6.84564007       1.00056802 </v>
   <v>       6.54568389       1.00099614 </v>
   <v>       6.84564007       1.00056866 </v>
   <v>       6.01259458       1.00298906 </v>
   <v>       7.31829707       1.00025216 </v>
   <v>       8.34414247       1.00000011 </v>
   <v>       6.84564007       1.00056797 </v>
   <v>       5.66872853       1.00620034 </v>
   <v>       5.04378818       1.01894321 </v>
   <v>       5.17481748       1.01490567 </v>
   <v>       4.62849746       1.03563311 </v>
   <v>       6.01259458       1.00298782 </v>
   <v>       7.67549472       1.00013873 </v>
   <v>       8.26352084       1.00000251 </v>
   <v>       6.54568389       1.00099579 </v>
   <v>       5.04378818       1.01894216 </v>
   <v>       4.00839639       1.09338545 </v>
   <v>       3.83774736       1.11503641 </v>
   <v>       3.83774736       1.11505724 </v>
   <v>       5.17481748       1.01490847 </v>
   <v>       6.84564007       1.00056843 </v>
   <v>       6.84564007       1.00056819 </v>
   <v>       5.17481748       1.01490359 </v>
   <v>       3.83774736       1.11504105 </v>
   <v>       3.27284194       1.23513336 </v>
   <v>       2.00419819       1.76461573 </v>
   <v>       3.27284194       1.23515109 </v>
   <v>       5.04378818       1.01894985 </v>
   <v>       6.94274620       1.00046772 </v>
   <v>       7.58777189       1.00015901 </v>
   <v>       5.66872853       1.00620429 </v>
   <v>       3.83774736       1.11504932 </v>
   <v>       2.31424873       1.59400816 </v>
   <v>       3.27284194       1.23515124 </v>
   <v>       3.83774736       1.11504582 </v>
   <v>       5.17481748       1.01490815 </v>
   <v>       6.84564007       1.00056845 </v>
   <v>       6.84564007       1.00056845 </v>
   <v>       5.17481748       1.01490815 </v>
   <v>       3.83774736       1.11504581 </v>
   <v>       5.04378818       1.01894997 </v>
   <v>       5.17481748       1.01490801 </v>
   <v>       6.01259458       1.00298771 </v>
   <v>       7.31829707       1.00025212 </v>
   <v>       8.34414247       1.00000011 </v>
   <v>       6.84564007       1.00056840 </v>
   <v>       5.66872853       1.00620491 </v>
   <v>       6.94274620       1.00046780 </v>
   <v>       6.84564007       1.00056851 </v>
   <v>       7.31829707       1.00025210 </v>
   <v>       8.26352084       1.00000257 </v>
   <v>       7.58777189       1.00015904 </v>
   <v>       7.58777189       1.00015905 </v>
   <v>       8.26352084       1.00000257 </v>
   <v>       7.31829707       1.00025214 </v>
   <v>       6.84564007       1.00056857 </v>
   <v>       6.94274620       1.00046799 </v>
   <v>       5.66872853       1.00620827 </v>
   <v>       6.84564007       1.00056869 </v>
   <v>       8.34414247       1.00000011 </v>
   <v>       7.31829707       1.00025214 </v>
   <v>       6.01259458       1.00298821 </v>
   <v>       5.17481748       1.01490650 </v>
   <v>       5.04378818       1.01894967 </v>
   <v>       3.83774736       1.11505724 </v>
   <v>       5.17481748       1.01490847 </v>
   <v>       6.84564007       1.00056843 </v>
   <v>       6.84564007       1.00056819 </v>
   <v>       5.17481748       1.01490360 </v>
   <v>       3.83774736       1.11504105 </v>
   <v>       3.27284194       1.23513332 </v>
   <v>       2.31424873       1.59400844 </v>
   <v>       3.83774736       1.11504547 </v>
   <v>       5.66872853       1.00620493 </v>
   <v>       7.58777189       1.00015898 </v>
   <v>       6.94274620       1.00046753 </v>
   <v>       5.04378818       1.01894319 </v>
   <v>       3.27284194       1.23511595 </v>
   <v>       2.00419819       1.76461078 </v>
  </varray>
  <dielectricfunction comment="1 + v P,  with REDUCIBLE POLARIZABILTY P=P_0 (1 -(v+f) P_0)^-1">
   <imag>
    <array>
     <dimension dim="1">gridpoints</dimension>
     <field>energy</field>
     <field>xx</field>
     <field>yy</field>
     <field>zz</field>
     <field>xy</field>
     <field>yz</field>
     <field>zx</field>
     <set>
      <r>     0.0000    -0.0000     0.0000    -0.0000     0.0000    -0.0000    -0.0000 </r>
      <r>     0.4339     0.2858     0.2858     0.2858    -0.0000    -0.0000    -0.0000 </r>
      <r>     0.8662     0.6355     0.6355     0.6355    -0.0000    -0.0000    -0.0000 </r>
      <r>     1.2953     1.1582     1.1582     1.1582    -0.0000    -0.0000    -0.0000 </r>
      <r>     1.7198     2.1370     2.1370     2.1370    -0.0000     0.0000    -0.0000 </r>
      <r>     2.1384     4.5605     4.5605     4.5604    -0.0000     0.0000     0.0000 </r>
      <r>     2.5507    10.4151    10.4151    10.4151    -0.0000     0.0000     0.0000 </r>
      <r>     2.9557    17.7090    17.7090    17.7090    -0.0000    -0.0000    -0.0000 </r>
      <r>     3.3537    20.5537    20.5537    20.5537    -0.0000    -0.0000    -0.0000 </r>
      <r>     3.7445    27.6883    27.6883    27.6883    -0.0000    -0.0000    -0.0000 </r>
      <r>     4.1284    25.3047    25.3047    25.3047    -0.0000     0.0000    -0.0000 </r>
      <r>     4.5060    15.3516    15.3516    15.3516    -0.0000     0.0000    -0.0000 </r>
      <r>     4.8781     9.4564     9.4564     9.4564     0.0000     0.0000     0.0000 </r>
      <r>     5.2456     6.5609     6.5609     6.5609    -0.0000     0.0000     0.0000 </r>
      <r>     5.6095     5.6303     5.6303     5.6303    -0.0000     0.0000    -0.0000 </r>
      <r>     5.9708     5.8306     5.8306     5.8306    -0.0000     0.0000    -0.0000 </r>
      <r>     6.3309     6.7506     6.7506     6.7506    -0.0000     0.0000    -0.0000 </r>
      <r>     6.6909     6.8239     6.8239     6.8239    -0.0000     0.0000    -0.0000 </r>
      <r>     7.0524     5.6942     5.6942     5.6942    -0.0000     0.0000     0.0000 </r>
      <r>     7.4168     4.5623     4.5623     4.5623     0.0000    -0.0000     0.0000 </r>
      <r>     7.7858     3.3840     3.3840     3.3840     0.0000    -0.0000     0.0000 </r>
      <r>     8.1611     2.2961     2.2961     2.2961     0.0000     0.0000     0.0000 </r>
      <r>     8.5448     1.6907     1.6907     1.6907     0.0000     0.0000     0.0000 </r>
      <r>     8.9390     1.5162     1.5162     1.5162     0.0000     0.0000     0.0000 </r>
      <r>     9.3459     1.3431     1.3431     1.3431     0.0000     0.0000     0.0000 </r>
      <r>     9.7686     1.1939     1.1939     1.1939     0.0000     0.0000     0.0000 </r>
      <r>    10.2096     1.1407     1.1407     1.1407     0.0000     0.0000     0.0000 </r>
      <r>    10.6734     1.0581     1.0581     1.0581     0.0000     0.0000     0.0000 </r>
      <r>    11.1635     0.8820     0.8820     0.8820     0.0000    -0.0000    -0.0000 </r>
      <r>    11.6848     0.6414     0.6414     0.6414     0.0000    -0.0000    -0.0000 </r>
      <r>    12.2430     0.5215     0.5215     0.5215     0.0000    -0.0000     0.0000 </r>
      <r>    12.8459     0.5141     0.5141     0.5141    -0.0000     0.0000    -0.0000 </r>
      <r>    13.5013     0.5356     0.5356     0.5356     0.0000     0.0000     0.0000 </r>
      <r>    14.2201     0.4623     0.4623     0.4623     0.0000    -0.0000     0.0000 </r>
      <r>    15.0150     0.3880     0.3880     0.3880    -0.0000     0.0000     0.0000 </r>
      <r>    15.9035     0.3123     0.3123     0.3123    -0.0000     0.0000     0.0000 </r>
      <r>    16.9060     0.2736     0.2736     0.2736     0.0000     0.0000     0.0000 </r>
      <r>    18.0505     0.2443     0.2443     0.2443     0.0000    -0.0000     0.0000 </r>
      <r>    19.3746     0.1787     0.1787     0.1787     0.0000    -0.0000     0.0000 </r>
      <r>    20.9277     0.1148     0.1148     0.1148    -0.0000    -0.0000    -0.0000 </r>
      <r>    22.7800     0.0790     0.0790     0.0790     0.0000     0.0000     0.0000 </r>
      <r>    25.0309     0.0532     0.0532     0.0532     0.0000    -0.0000     0.0000 </r>
      <r>    27.8293     0.0325     0.0325     0.0325    -0.0000     0.0000    -0.0000 </r>
      <r>    31.4039     0.0253     0.0253     0.0253    -0.0000     0.0000    -0.0000 </r>
      <r>    36.1296     0.0237     0.0237     0.0237    -0.0000     0.0000    -0.0000 </r>
      <r>    42.6641     0.0210     0.0210     0.0210     0.0000     0.0000     0.0000 </r>
      <r>    52.2733     0.0134     0.0134     0.0134     0.0000     0.0000     0.0000 </r>
      <r>    67.7540     0.0059     0.0059     0.0059     0.0000     0.0000     0.0000 </r>
      <r>    96.7418     0.0003     0.0003     0.0003     0.0000     0.0000     0.0000 </r>
      <r>   170.1783     0.0000     0.0000     0.0000     0.0000     0.0000     0.0000 </r>
     </set>
    </array>
   </imag>
   <real>
    <array>
     <dimension dim="1">gridpoints</dimension>
     <field>energy</field>
     <field>xx</field>
     <field>yy</field>
     <field>zz</field>
     <field>xy</field>
     <field>yz</field>
     <field>zx</field>
     <set>
      <r>     0.0000    13.4642    13.4642    13.4642     0.0000     0.0000     0.0000 </r>
      <r>     0.4339    13.6354    13.6354    13.6354     0.0000     0.0000     0.0000 </r>
      <r>     0.8662    14.1802    14.1802    14.1802     0.0000     0.0000     0.0000 </r>
      <r>     1.2953    15.2076    15.2076    15.2076     0.0000     0.0000     0.0000 </r>
      <r>     1.7198    16.9564    16.9564    16.9564     0.0000     0.0000     0.0000 </r>
      <r>     2.1384    19.6819    19.6819    19.6819     0.0000     0.0000     0.0000 </r>
      <r>     2.5507    21.7922    21.7922    21.7922    -0.0000     0.0000     0.0000 </r>
      <r>     2.9557    18.4091    18.4091    18.4091    -0.0000     0.0000    -0.0000 </r>
      <r>     3.3537    14.6953    14.6953    14.6953     0.0000     0.0000     0.0000 </r>
      <r>     3.7445     8.2818     8.2818     8.2818     0.0000     0.0000     0.0000 </r>
      <r>     4.1284    -5.1340    -5.1340    -5.1340     0.0000     0.0000     0.0000 </r>
      <r>     4.5060    -9.6291    -9.6291    -9.6291     0.0000     0.0000     0.0000 </r>
      <r>     4.8781    -7.8145    -7.8145    -7.8145     0.0000     0.0000     0.0000 </r>
      <r>     5.2456    -5.5576    -5.5576    -5.5576     0.0000     0.0000     0.0000 </r>
      <r>     5.6095    -3.4357    -3.4357    -3.4356     0.0000     0.0000     0.0000 </r>
      <r>     5.9708    -2.1305    -2.1305    -2.1305     0.0000     0.0000     0.0000 </r>
      <r>     6.3309    -2.0315    -2.0315    -2.0315     0.0000     0.0000     0.0000 </r>
      <r>     6.6909    -3.2871    -3.2871    -3.2871     0.0000     0.0000     0.0000 </r>
      <r>     7.0524    -4.1596    -4.1596    -4.1596     0.0000     0.0000     0.0000 </r>
      <r>     7.4168    -4.3515    -4.3515    -4.3515     0.0000     0.0000     0.0000 </r>
      <r>     7.7858    -4.3451    -4.3451    -4.3451     0.0000     0.0000     0.0000 </r>
      <r>     8.1611    -3.8305    -3.8305    -3.8305     0.0000     0.0000     0.0000 </r>
      <r>     8.5448    -3.0522    -3.0522    -3.0522     0.0000     0.0000     0.0000 </r>
      <r>     8.9390    -2.4688    -2.4688    -2.4688     0.0000     0.0000     0.0000 </r>
      <r>     9.3459    -2.1252    -2.1252    -2.1252     0.0000     0.0000     0.0000 </r>
      <r>     9.7686    -1.7810    -1.7810    -1.7810     0.0000     0.0000     0.0000 </r>
      <r>    10.2096    -1.5219    -1.5219    -1.5219     0.0000     0.0000     0.0000 </r>
      <r>    10.6734    -1.3889    -1.3889    -1.3889     0.0000     0.0000     0.0000 </r>
      <r>    11.1635    -1.2866    -1.2866    -1.2866     0.0000     0.0000     0.0000 </r>
      <r>    11.6848    -1.0781    -1.0781    -1.0781     0.0000     0.0000     0.0000 </r>
      <r>    12.2430    -0.7805    -0.7805    -0.7805     0.0000     0.0000     0.0000 </r>
      <r>    12.8459    -0.5431    -0.5431    -0.5431     0.0000     0.0000     0.0000 </r>
      <r>    13.5013    -0.4168    -0.4168    -0.4168     0.0000     0.0000     0.0000 </r>
      <r>    14.2201    -0.3418    -0.3418    -0.3418     0.0000     0.0000     0.0000 </r>
      <r>    15.0150    -0.2211    -0.2211    -0.2211     0.0000     0.0000     0.0000 </r>
      <r>    15.9035    -0.0909    -0.0909    -0.0909     0.0000     0.0000     0.0000 </r>
      <r>    16.9060     0.0388     0.0388     0.0388     0.0000     0.0000     0.0000 </r>
      <r>    18.0505     0.1335     0.1335     0.1335     0.0000     0.0000     0.0000 </r>
      <r>    19.3746     0.2132     0.2132     0.2132     0.0000     0.0000     0.0000 </r>
      <r>    20.9277     0.3309     0.3309     0.3309     0.0000     0.0000     0.0000 </r>
      <r>    22.7800     0.4471     0.4471     0.4471     0.0000     0.0000     0.0000 </r>
      <r>    25.0309     0.5454     0.5454     0.5454     0.0000     0.0000     0.0000 </r>
      <r>    27.8293     0.6435     0.6435     0.6436     0.0000     0.0000     0.0000 </r>
      <r>    31.4039     0.7297     0.7297     0.7297     0.0000     0.0000     0.0000 </r>
      <r>    36.1296     0.8002     0.8002     0.8002     0.0000     0.0000     0.0000 </r>
      <r>    42.6641     0.8540     0.8540     0.8540     0.0000     0.0000     0.0000 </r>
      <r>    52.2733     0.8982     0.8982     0.8982     0.0000     0.0000     0.0000 </r>
      <r>    67.7540     0.9370     0.9370     0.9370     0.0000     0.0000     0.0000 </r>
      <r>    96.7418     0.9686     0.9686     0.9686    -0.0000    -0.0000    -0.0000 </r>
      <r>   170.1783     0.9903     0.9903     0.9903    -0.0000    -0.0000    -0.0000 </r>
     </set>
    </array>
   </real>
  </dielectricfunction>
  <dielectricfunction comment="INVERSE MACROSCOPIC DIELECTRIC TENSOR (including local field effects in RPA (Hartree))">
   <imag>
    <array>
     <dimension dim="1">gridpoints</dimension>
     <field>energy</field>
     <field>xx</field>
     <field>yy</field>
     <field>zz</field>
     <field>xy</field>
     <field>yz</field>
     <field>zx</field>
     <set>
      <r>     0.0000    -0.0000     0.0000    -0.0000     0.0000    -0.0000    -0.0000 </r>
      <r>     0.4339     0.2858     0.2858     0.2858    -0.0000    -0.0000    -0.0000 </r>
      <r>     0.8662     0.6355     0.6355     0.6355    -0.0000    -0.0000    -0.0000 </r>
      <r>     1.2953     1.1582     1.1582     1.1582    -0.0000    -0.0000    -0.0000 </r>
      <r>     1.7198     2.1370     2.1370     2.1370    -0.0000     0.0000    -0.0000 </r>
      <r>     2.1384     4.5605     4.5605     4.5604    -0.0000     0.0000     0.0000 </r>
      <r>     2.5507    10.4151    10.4151    10.4151    -0.0000     0.0000     0.0000 </r>
      <r>     2.9557    17.7090    17.7090    17.7090    -0.0000    -0.0000    -0.0000 </r>
      <r>     3.3537    20.5537    20.5537    20.5537    -0.0000    -0.0000    -0.0000 </r>
      <r>     3.7445    27.6883    27.6883    27.6883    -0.0000    -0.0000    -0.0000 </r>
[...]
       <r>   30.7194    0.0000 </r>
       <r>   31.0225    0.0000 </r>
       <r>   31.1846    0.0000 </r>
       <r>   33.6220    0.0000 </r>
       <r>   34.8554    0.0000 </r>
       <r>   35.3798    0.0000 </r>
       <r>   36.1112    0.0000 </r>
       <r>   36.4092    0.0000 </r>
       <r>   37.7240    0.0000 </r>
       <r>   39.1243    0.0000 </r>
       <r>   41.4446    0.0000 </r>
       <r>   42.7406    0.0000 </r>
       <r>   44.8929    0.0000 </r>
       <r>   45.1559    0.0000 </r>
       <r>   46.1696    0.0000 </r>
       <r>   47.5574    0.0000 </r>
       <r>   47.9337    0.0000 </r>
       <r>   49.2403    0.0000 </r>
       <r>   49.8311    0.0000 </r>
       <r>   50.2781    0.0000 </r>
       <r>   51.4412    0.0000 </r>
       <r>   53.2777    0.0000 </r>
       <r>   54.1144    0.0000 </r>
       <r>   55.5298    0.0000 </r>
       <r>   56.3330    0.0000 </r>
       <r>   56.8105    0.0000 </r>
       <r>   57.6892    0.0000 </r>
       <r>   58.8765    0.0000 </r>
       <r>   60.1288    0.0000 </r>
       <r>   60.3869    0.0000 </r>
       <r>   60.9133    0.0000 </r>
       <r>   61.1588    0.0000 </r>
       <r>   61.9628    0.0000 </r>
       <r>   62.5333    0.0000 </r>
       <r>   63.3600    0.0000 </r>
       <r>   64.8084    0.0000 </r>
       <r>   65.4474    0.0000 </r>
       <r>   67.2544    0.0000 </r>
       <r>   67.4685    0.0000 </r>
       <r>   68.1660    0.0000 </r>
       <r>   69.1796    0.0000 </r>
       <r>   69.2938    0.0000 </r>
       <r>   70.7969    0.0000 </r>
      </set>
      <set comment="kpoint 16">
       <r>   -2.6519    1.0000 </r>
       <r>   -2.6519    1.0000 </r>
       <r>    1.3318    1.0000 </r>
       <r>    1.3318    1.0000 </r>
       <r>    8.4078    0.0000 </r>
       <r>    8.4078    0.0000 </r>
       <r>   12.5025    0.0000 </r>
       <r>   12.5025    0.0000 </r>
       <r>   15.5768    0.0000 </r>
       <r>   15.5768    0.0000 </r>
       <r>   18.0186    0.0000 </r>
       <r>   18.0186    0.0000 </r>
       <r>   21.5656    0.0000 </r>
       <r>   21.5656    0.0000 </r>
       <r>   22.3377    0.0000 </r>
       <r>   22.3377    0.0000 </r>
       <r>   24.1378    0.0000 </r>
       <r>   24.1378    0.0000 </r>
       <r>   26.3583    0.0000 </r>
       <r>   26.3583    0.0000 </r>
       <r>   28.4184    0.0000 </r>
       <r>   28.4184    0.0000 </r>
       <r>   30.1161    0.0000 </r>
       <r>   30.1161    0.0000 </r>
       <r>   35.1083    0.0000 </r>
       <r>   35.1083    0.0000 </r>
       <r>   36.1112    0.0000 </r>
       <r>   36.1112    0.0000 </r>
       <r>   37.2576    0.0000 </r>
       <r>   37.2576    0.0000 </r>
       <r>   42.1256    0.0000 </r>
       <r>   42.1256    0.0000 </r>
       <r>   42.7471    0.0000 </r>
       <r>   42.7471    0.0000 </r>
       <r>   45.6291    0.0000 </r>
       <r>   45.6291    0.0000 </r>
       <r>   47.4488    0.0000 </r>
       <r>   47.4488    0.0000 </r>
       <r>   48.2999    0.0000 </r>
       <r>   48.2999    0.0000 </r>
       <r>   52.1815    0.0000 </r>
       <r>   52.1815    0.0000 </r>
       <r>   53.8364    0.0000 </r>
       <r>   53.8364    0.0000 </r>
       <r>   55.7923    0.0000 </r>
       <r>   55.7923    0.0000 </r>
       <r>   56.0809    0.0000 </r>
       <r>   56.0809    0.0000 </r>
       <r>   59.6656    0.0000 </r>
       <r>   59.6656    0.0000 </r>
       <r>   60.8383    0.0000 </r>
       <r>   60.8383    0.0000 </r>
       <r>   62.5434    0.0000 </r>
       <r>   62.5434    0.0000 </r>
       <r>   63.7910    0.0000 </r>
       <r>   63.7910    0.0000 </r>
       <r>   64.8038    0.0000 </r>
       <r>   64.8038    0.0000 </r>
       <r>   67.6099    0.0000 </r>
       <r>   67.6099    0.0000 </r>
       <r>   69.1071    0.0000 </r>
       <r>   69.1071    0.0000 </r>
       <r>   70.4148    0.0000 </r>
       <r>   70.4148    0.0000 </r>
      </set>
     </set>
    </set>
   </array>
  </eigenvalues>
  <separator name="orbital magnetization" >
   <v name="MAGDIPOLOUT">      0.00000000      0.00000000      0.00000000</v>
  </separator>
  <dos>
   <i name="efermi">      5.46967635 </i>
   <total>
    <array>
     <dimension dim="1">gridpoints</dimension>
     <dimension dim="2">spin</dimension>
     <field>energy</field>
     <field>total</field>
     <field>integrated</field>
     <set>
      <set comment="spin 1">
       <r>   -10.9862     0.0000     0.0000 </r>
       <r>   -10.6877     0.0000     0.0000 </r>
       <r>   -10.3892     0.0000     0.0000 </r>
       <r>   -10.0906     0.0000     0.0000 </r>
       <r>    -9.7921     0.0000     0.0000 </r>
       <r>    -9.4936     0.0000     0.0000 </r>
       <r>    -9.1951     0.0000     0.0000 </r>
       <r>    -8.8966     0.0000     0.0000 </r>
       <r>    -8.5980     0.0000     0.0000 </r>
       <r>    -8.2995     0.0000     0.0000 </r>
       <r>    -8.0010     0.0000     0.0000 </r>
       <r>    -7.7025     0.0000     0.0000 </r>
       <r>    -7.4040     0.0000     0.0000 </r>
       <r>    -7.1054     0.0000     0.0000 </r>
       <r>    -6.8069     0.0310     0.0092 </r>
       <r>    -6.5084     0.2357     0.0796 </r>
       <r>    -6.2099     0.1986     0.1389 </r>
       <r>    -5.9114     0.3615     0.2468 </r>
       <r>    -5.6128     0.5368     0.4070 </r>
       <r>    -5.3143     0.4665     0.5463 </r>
       <r>    -5.0158     0.1132     0.5801 </r>
       <r>    -4.7173     0.8271     0.8270 </r>
       <r>    -4.4188     1.3834     1.2402 </r>
       <r>    -4.1203     0.2189     1.3056 </r>
       <r>    -3.8217     0.6095     1.4875 </r>
       <r>    -3.5232     1.2514     1.8611 </r>
       <r>    -3.2247     0.0000     1.8611 </r>
       <r>    -2.9262     0.0000     1.8611 </r>
       <r>    -2.6277     0.7469     2.0841 </r>
       <r>    -2.3291     0.1836     2.1389 </r>
       <r>    -2.0306     0.0029     2.1397 </r>
       <r>    -1.7321     1.0479     2.4526 </r>
       <r>    -1.4336     1.6749     2.9526 </r>
       <r>    -1.1351     0.0038     2.9537 </r>
       <r>    -0.8365     0.7444     3.1759 </r>
       <r>    -0.5380     0.7294     3.3937 </r>
       <r>    -0.2395     0.2615     3.4717 </r>
       <r>     0.0590     0.1549     3.5180 </r>
       <r>     0.3575     0.0329     3.5278 </r>
       <r>     0.6561     1.1005     3.8563 </r>
       <r>     0.9546     0.2999     3.9460 </r>
       <r>     1.2531     0.4961     4.0941 </r>
       <r>     1.5516     2.5694     4.8611 </r>
       <r>     1.8501     0.0007     4.8613 </r>
       <r>     2.1487     0.8759     5.1228 </r>
       <r>     2.4472     1.9613     5.7083 </r>
       <r>     2.7457     1.8572     6.2627 </r>
       <r>     3.0442     0.9628     6.5501 </r>
       <r>     3.3427     1.9869     7.1432 </r>
       <r>     3.6412     0.0484     7.1577 </r>
       <r>     3.9398     1.3522     7.5613 </r>
       <r>     4.2383     0.5079     7.7130 </r>
       <r>     4.5368     0.2821     7.7972 </r>
       <r>     4.8353     0.5864     7.9722 </r>
       <r>     5.1338     0.0801     7.9961 </r>
       <r>     5.4324     0.0129     8.0000 </r>
       <r>     5.7309     0.0000     8.0000 </r>
       <r>     6.0294     0.0000     8.0000 </r>
       <r>     6.3279     0.1925     8.0575 </r>
       <r>     6.6264     0.2174     8.1224 </r>
       <r>     6.9250     0.7067     8.3333 </r>
       <r>     7.2235     0.2113     8.3964 </r>
       <r>     7.5220     0.6542     8.5917 </r>
       <r>     7.8205     1.7334     9.1092 </r>
       <r>     8.1190     0.1455     9.1526 </r>
       <r>     8.4176     2.0643     9.7688 </r>
       <r>     8.7161     1.1157    10.1019 </r>
       <r>     9.0146     1.2092    10.4628 </r>
       <r>     9.3131     1.6139    10.9446 </r>
       <r>     9.6116     1.7941    11.4802 </r>
       <r>     9.9101     2.1114    12.1105 </r>
       <r>    10.2087     2.6372    12.8977 </r>
       <r>    10.5072     1.0242    13.2035 </r>
       <r>    10.8057     0.0400    13.2156 </r>
       <r>    11.1042     0.7045    13.4259 </r>
       <r>    11.4027     0.8308    13.6739 </r>
       <r>    11.7013     0.6458    13.8667 </r>
       <r>    11.9998     0.8190    14.1112 </r>
       <r>    12.2983     1.9410    14.6906 </r>
       <r>    12.5968     2.6418    15.4793 </r>
       <r>    12.8953     1.8486    16.0316 </r>
       <r>    13.1939     1.9999    16.6286 </r>
       <r>    13.4924     1.6964    17.1350 </r>
       <r>    13.7909     0.0750    17.1574 </r>
       <r>    14.0894     0.5145    17.3110 </r>
       <r>    14.3879     2.2508    17.9829 </r>
       <r>    14.6865     1.8133    18.5242 </r>
       <r>    14.9850     0.6973    18.7324 </r>
       <r>    15.2835     0.6173    18.9167 </r>
       <r>    15.5820     0.7944    19.1538 </r>
       <r>    15.8805     3.6654    20.2480 </r>
       <r>    16.1791     1.0772    20.5696 </r>
       <r>    16.4776     0.4719    20.7105 </r>
       <r>    16.7761     1.1193    21.0446 </r>
       <r>    17.0746     2.3384    21.7427 </r>
       <r>    17.3731     0.3081    21.8346 </r>
       <r>    17.6716     1.1107    22.1662 </r>
       <r>    17.9702     2.4863    22.9084 </r>
       <r>    18.2687     2.5940    23.6828 </r>
       <r>    18.5672     1.4863    24.1265 </r>
       <r>    18.8657     1.8680    24.6841 </r>
       <r>    19.1642     0.9165    24.9578 </r>
       <r>    19.4628     0.2036    25.0186 </r>
       <r>    19.7613     0.8626    25.2761 </r>
       <r>    20.0598     1.9119    25.8468 </r>
       <r>    20.3583     0.9424    26.1286 </r>
       <r>    20.6568     1.5357    26.5870 </r>
       <r>    20.9554     1.8077    27.1267 </r>
       <r>    21.2539     2.5845    27.8982 </r>
       <r>    21.5524     1.9379    28.4770 </r>
       <r>    21.8509     2.2444    29.1471 </r>
       <r>    22.1494     1.4657    29.5846 </r>
       <r>    22.4480     1.4907    30.0298 </r>
       <r>    22.7465     0.6111    30.2125 </r>
       <r>    23.0450     1.8658    30.7694 </r>
       <r>    23.3435     1.7004    31.2772 </r>
       <r>    23.6420     0.3055    31.3684 </r>
       <r>    23.9406     2.4814    32.1091 </r>
       <r>    24.2391     2.0576    32.7234 </r>
       <r>    24.5376     0.5039    32.8738 </r>
       <r>    24.8361     1.7118    33.3848 </r>
       <r>    25.1346     2.4526    34.1170 </r>
       <r>    25.4331     0.8803    34.3798 </r>
       <r>    25.7317     4.0115    35.5773 </r>
       <r>    26.0302     1.7560    36.1019 </r>
       <r>    26.3287     1.6323    36.5893 </r>
       <r>    26.6272     0.9726    36.8796 </r>
       <r>    26.9257     2.9883    37.7717 </r>
       <r>    27.2243     0.2354    37.8420 </r>
       <r>    27.5228     1.5848    38.3151 </r>
       <r>    27.8213     1.6520    38.8082 </r>
       <r>    28.1198     1.9316    39.3848 </r>
       <r>    28.4183     1.8173    39.9273 </r>
       <r>    28.7169     1.6065    40.4069 </r>
       <r>    29.0154     1.3737    40.8170 </r>
       <r>    29.3139     2.8489    41.6674 </r>
       <r>    29.6124     0.3698    41.7779 </r>
       <r>    29.9109     1.1795    42.1300 </r>
       <r>    30.2095     1.3400    42.5300 </r>
       <r>    30.5080     1.0811    42.8527 </r>
       <r>    30.8065     1.9487    43.4344 </r>
       <r>    31.1050     0.8728    43.6950 </r>
       <r>    31.4035     1.6634    44.1915 </r>
       <r>    31.7021     2.1754    44.8409 </r>
       <r>    32.0006     3.0990    45.7660 </r>
       <r>    32.2991     1.4308    46.1932 </r>
       <r>    32.5976     2.2382    46.8613 </r>
       <r>    32.8961     2.9163    47.7319 </r>
       <r>    33.1946     0.1227    47.7685 </r>
       <r>    33.4932     0.6455    47.9612 </r>
       <r>    33.7917     2.8177    48.8024 </r>
       <r>    34.0902     0.6489    48.9961 </r>
       <r>    34.3887     1.3813    49.4084 </r>
       <r>    34.6872     2.7869    50.2404 </r>
       <r>    34.9858     2.7219    51.0530 </r>
       <r>    35.2843     2.6470    51.8432 </r>
       <r>    35.5828     2.0050    52.4417 </r>
       <r>    35.8813     1.2499    52.8148 </r>
       <r>    36.1798     1.5288    53.2712 </r>
       <r>    36.4784     1.4559    53.7058 </r>
       <r>    36.7769     1.6435    54.1964 </r>
       <r>    37.0754     2.1600    54.8412 </r>
       <r>    37.3739     3.1122    55.7703 </r>
       <r>    37.6724     3.1218    56.7023 </r>
       <r>    37.9710     2.3362    57.3998 </r>
       <r>    38.2695     0.5613    57.5673 </r>
       <r>    38.5680     1.1696    57.9165 </r>
       <r>    38.8665     0.1198    57.9523 </r>
       <r>    39.1650     4.7981    59.3846 </r>
       <r>    39.4636     1.3197    59.7785 </r>
       <r>    39.7621     2.6661    60.5744 </r>
       <r>    40.0606     0.7280    60.7918 </r>
       <r>    40.3591     0.5227    60.9478 </r>
       <r>    40.6576     2.8720    61.8051 </r>
       <r>    40.9561     1.6799    62.3066 </r>
       <r>    41.2547     0.9846    62.6005 </r>
       <r>    41.5532     1.1756    62.9515 </r>
       <r>    41.8517     1.3923    63.3673 </r>
       <r>    42.1502     2.1630    64.0130 </r>
       <r>    42.4487     2.9655    64.8983 </r>
       <r>    42.7473     1.7372    65.4169 </r>
       <r>    43.0458     2.2835    66.0986 </r>
       <r>    43.3443     2.3956    66.8137 </r>
       <r>    43.6428     0.4841    66.9582 </r>
       <r>    43.9413     1.2350    67.3269 </r>
       <r>    44.2399     2.8032    68.1638 </r>
       <r>    44.5384     2.3944    68.8787 </r>
       <r>    44.8369     1.2403    69.2489 </r>
       <r>    45.1354     1.0876    69.5736 </r>
       <r>    45.4339     2.7788    70.4031 </r>
       <r>    45.7325     4.4135    71.7206 </r>
       <r>    46.0310     1.1326    72.0591 </r>
       <r>    46.3295     1.3503    72.4622 </r>
       <r>    46.6280     1.5459    72.9237 </r>
       <r>    46.9265     1.6130    73.4053 </r>
       <r>    47.2251     0.8737    73.6661 </r>
       <r>    47.5236     3.7318    74.7801 </r>
       <r>    47.8221     3.0981    75.7049 </r>
       <r>    48.1206     1.6053    76.1841 </r>
       <r>    48.4191     2.5177    76.9357 </r>
       <r>    48.7176     1.3179    77.3294 </r>
       <r>    49.0162     1.8552    77.8833 </r>
       <r>    49.3147     4.6621    79.2750 </r>
       <r>    49.6132     0.6604    79.4722 </r>
       <r>    49.9117     1.6486    79.9644 </r>
       <r>    50.2102     3.9558    81.1453 </r>
       <r>    50.5088     0.9331    81.4239 </r>
       <r>    50.8073     1.6459    81.9152 </r>
       <r>    51.1058     0.2981    82.0043 </r>
       <r>    51.4043     3.4721    83.0408 </r>
       <r>    51.7028     2.2827    83.7226 </r>
       <r>    52.0014     0.9578    84.0085 </r>
       <r>    52.2999     3.6719    85.1046 </r>
       <r>    52.5984     1.1157    85.4378 </r>
       <r>    52.8969     2.3724    86.1461 </r>
       <r>    53.1954     2.6232    86.9291 </r>
       <r>    53.4940     3.0195    87.8305 </r>
       <r>    53.7925     3.4593    88.8632 </r>
       <r>    54.0910     3.7538    89.9838 </r>
       <r>    54.3895     0.6749    90.1853 </r>
       <r>    54.6880     0.9148    90.4584 </r>
       <r>    54.9866     1.4702    90.8972 </r>
       <r>    55.2851     1.1037    91.2267 </r>
       <r>    55.5836     3.2861    92.2077 </r>
       <r>    55.8821     3.4957    93.2515 </r>
       <r>    56.1806     2.5118    94.0014 </r>
       <r>    56.4791     2.1091    94.6310 </r>
       <r>    56.7777     1.7598    95.1564 </r>
       <r>    57.0762     1.1510    95.5000 </r>
       <r>    57.3747     0.0930    95.5278 </r>
       <r>    57.6732     0.6275    95.7151 </r>
       <r>    57.9717     2.5966    96.4903 </r>
       <r>    58.2703     1.4341    96.9185 </r>
       <r>    58.5688     2.7617    97.7429 </r>
       <r>    58.8673     4.0247    98.9444 </r>
       <r>    59.1658     1.9211    99.5179 </r>
       <r>    59.4643     1.7699   100.0463 </r>
       <r>    59.7629     1.5913   100.5213 </r>
       <r>    60.0614     2.3661   101.2277 </r>
       <r>    60.3599     2.1034   101.8558 </r>
       <r>    60.6584     3.3207   102.8472 </r>
       <r>    60.9569     2.7086   103.6557 </r>
       <r>    61.2555     4.4529   104.9851 </r>
       <r>    61.5540     0.3073   105.0771 </r>
       <r>    61.8525     1.7853   105.6100 </r>
       <r>    62.1510     1.4656   106.0476 </r>
       <r>    62.4495     1.9852   106.6402 </r>
       <r>    62.7481     3.6106   107.7182 </r>
       <r>    63.0466     2.6178   108.4997 </r>
       <r>    63.3451     3.6714   109.5960 </r>
       <r>    63.6436     1.6814   110.0979 </r>
       <r>    63.9421     4.1024   111.3226 </r>
       <r>    64.2406     2.0329   111.9294 </r>
       <r>    64.5392     1.7025   112.4380 </r>
       <r>    64.8377     4.7837   113.8661 </r>
       <r>    65.1362     2.6031   114.6431 </r>
       <r>    65.4347     1.8092   115.1832 </r>
       <r>    65.7332     1.6927   115.6885 </r>
       <r>    66.0318     2.1776   116.3386 </r>
       <r>    66.3303     0.4274   116.4665 </r>
       <r>    66.6288     1.5281   116.9227 </r>
       <r>    66.9273     1.9033   117.4908 </r>
       <r>    67.2258     2.8872   118.3527 </r>
       <r>    67.5244     4.3375   119.6475 </r>
       <r>    67.8229     3.2567   120.6199 </r>
       <r>    68.1214     0.7454   120.8425 </r>
       <r>    68.4199     2.4829   121.5837 </r>
       <r>    68.7184     0.8634   121.8415 </r>
       <r>    69.0170     2.2981   122.5277 </r>
       <r>    69.3155     6.2907   124.4056 </r>
       <r>    69.6140     3.3859   125.4163 </r>
       <r>    69.9125     0.9936   125.7130 </r>
       <r>    70.2110     1.5670   126.1809 </r>
       <r>    70.5096     2.1805   126.8318 </r>
       <r>    70.8081     2.2131   127.4924 </r>
       <r>    71.1066     0.8336   127.7413 </r>
       <r>    71.4051     0.7562   127.9671 </r>
       <r>    71.7036     0.0173   127.9722 </r>
       <r>    72.0021     0.0000   127.9722 </r>
       <r>    72.3007     0.0000   127.9722 </r>
       <r>    72.5992     0.0000   127.9722 </r>
       <r>    72.8977     0.0000   127.9722 </r>
       <r>    73.1962     0.0000   127.9722 </r>
       <r>    73.4947     0.0000   127.9722 </r>
       <r>    73.7933     0.0000   127.9722 </r>
       <r>    74.0918     0.0000   127.9722 </r>
       <r>    74.3903     0.0001   127.9723 </r>
       <r>    74.6888     0.0930   128.0000 </r>
       <r>    74.9873     0.0000   128.0000 </r>
       <r>    75.2859     0.0000   128.0000 </r>
       <r>    75.5844     0.0000   128.0000 </r>
       <r>    75.8829     0.0000   128.0000 </r>
       <r>    76.1814     0.0000   128.0000 </r>
       <r>    76.4799     0.0000   128.0000 </r>
       <r>    76.7785     0.0000   128.0000 </r>
       <r>    77.0770     0.0000   128.0000 </r>
       <r>    77.3755     0.0000   128.0000 </r>
       <r>    77.6740     0.0000   128.0000 </r>
       <r>    77.9725     0.0000   128.0000 </r>
       <r>    78.2711     0.0000   128.0000 </r>
       <r>    78.5696     0.0000   128.0000 </r>
      </set>
     </set>
    </array>
   </total>
  </dos>
 </calculation>
 <structure name="finalpos" >
  <crystal>
   <varray name="basis" >
    <v>       2.71500000       2.71500000       0.00000000 </v>
    <v>       0.00000000       2.71500000       2.71500000 </v>
    <v>       2.71500000       0.00000000       2.71500000 </v>
   </varray>
   <i name="volume">     40.02575175 </i>
   <varray name="rec_basis" >
    <v>       0.18416206       0.18416206      -0.18416206 </v>
    <v>      -0.18416206       0.18416206       0.18416206 </v>
    <v>       0.18416206      -0.18416206       0.18416206 </v>
   </varray>
  </crystal>
  <varray name="positions" >
   <v>       0.00000000       0.00000000       0.00000000 </v>
   <v>       0.25000000       0.25000000       0.25000000 </v>
  </varray>
 </structure>
</modeling>
