   2   2   0   0
  0.2001288E+02  0.3839590E-09  0.3839590E-09  0.3839590E-09  0.5000000E-15
   1.0000000000000000E-004
  CAR 
 cd Si GW0                               
     78.56496161    -10.88940299  301      5.54783651      1.00000000
    -10.889  0.0000E+00  0.0000E+00
    -10.591  0.0000E+00  0.0000E+00
    -10.293  0.0000E+00  0.0000E+00
     -9.995  0.0000E+00  0.0000E+00
     -9.697  0.0000E+00  0.0000E+00
     -9.398  0.0000E+00  0.0000E+00
     -9.100  0.0000E+00  0.0000E+00
     -8.802  0.0000E+00  0.0000E+00
     -8.504  0.0000E+00  0.0000E+00
     -8.206  0.0000E+00  0.0000E+00
     -7.908  0.0000E+00  0.0000E+00
     -7.609  0.0000E+00  0.0000E+00
     -7.311  0.0000E+00  0.0000E+00
     -7.013  0.1243E-08  0.3707E-09
     -6.715  0.3102E-01  0.9249E-02
     -6.417  0.2319E+00  0.7842E-01
     -6.119  0.2028E+00  0.1389E+00
     -5.820  0.3597E+00  0.2461E+00
     -5.522  0.5079E+00  0.3976E+00
     -5.224  0.4987E+00  0.5463E+00
     -4.926  0.1090E+00  0.5788E+00
     -4.628  0.8303E+00  0.8264E+00
     -4.329  0.1365E+01  0.1234E+01
     -4.031  0.2413E+00  0.1306E+01
     -3.733  0.5917E+00  0.1482E+01
     -3.435  0.1271E+01  0.1861E+01
     -3.137  0.0000E+00  0.1861E+01
     -2.839  0.7007E-06  0.1861E+01
     -2.540  0.7415E+00  0.2082E+01
     -2.242  0.1901E+00  0.2139E+01
     -1.944  0.5470E-02  0.2141E+01
     -1.646  0.1064E+01  0.2458E+01
     -1.348  0.1661E+01  0.2953E+01
     -1.049  0.2870E-02  0.2954E+01
     -0.751  0.7452E+00  0.3176E+01
     -0.453  0.7379E+00  0.3396E+01
     -0.155  0.2554E+00  0.3472E+01
      0.143  0.1649E+00  0.3521E+01
      0.441  0.2146E-01  0.3528E+01
      0.740  0.1113E+01  0.3860E+01
      1.038  0.5734E+00  0.4031E+01
      1.336  0.3650E+00  0.4140E+01
      1.634  0.2420E+01  0.4861E+01
      1.932  0.8958E-02  0.4864E+01
      2.231  0.9697E+00  0.5153E+01
      2.529  0.2087E+01  0.5775E+01
      2.827  0.1778E+01  0.6306E+01
      3.125  0.1003E+01  0.6605E+01
      3.423  0.1844E+01  0.7154E+01
      3.721  0.1503E-01  0.7159E+01
      4.020  0.1359E+01  0.7564E+01
      4.318  0.4996E+00  0.7713E+01
      4.616  0.3119E+00  0.7806E+01
      4.914  0.5575E+00  0.7972E+01
      5.212  0.8247E-01  0.7997E+01
      5.511  0.1069E-01  0.8000E+01
      5.809  0.0000E+00  0.8000E+01
      6.107  0.0000E+00  0.8000E+01
      6.405  0.9983E-01  0.8030E+01
      6.703  0.2777E+00  0.8113E+01
      7.001  0.7404E+00  0.8333E+01
      7.300  0.5756E-01  0.8350E+01
      7.598  0.6573E+00  0.8546E+01
      7.896  0.1772E+01  0.9075E+01
      8.194  0.1287E+00  0.9113E+01
      8.492  0.1513E+01  0.9564E+01
      8.791  0.1802E+01  0.1010E+02
      9.089  0.5111E+00  0.1025E+02
      9.387  0.1455E+01  0.1069E+02
      9.685  0.2533E+01  0.1144E+02
      9.983  0.1063E+01  0.1176E+02
     10.281  0.3156E+01  0.1270E+02
     10.580  0.1579E+01  0.1317E+02
     10.878  0.1056E+00  0.1320E+02
     11.176  0.7452E+00  0.1343E+02
     11.474  0.2187E+00  0.1349E+02
     11.772  0.7750E+00  0.1372E+02
     12.071  0.1118E+01  0.1406E+02
     12.369  0.9008E+00  0.1432E+02
     12.667  0.1686E+01  0.1483E+02
     12.965  0.6478E+00  0.1502E+02
     13.263  0.3157E+01  0.1596E+02
     13.561  0.3028E+01  0.1686E+02
     13.860  0.6226E+00  0.1705E+02
     14.158  0.1754E+00  0.1710E+02
     14.456  0.1888E+00  0.1716E+02
     14.754  0.4691E+00  0.1730E+02
     15.052  0.1722E+01  0.1781E+02
     15.351  0.2434E+01  0.1854E+02
     15.649  0.1616E+00  0.1859E+02
     15.947  0.1452E+01  0.1902E+02
     16.245  0.1216E+01  0.1938E+02
     16.543  0.2608E+01  0.2016E+02
     16.841  0.7546E+00  0.2038E+02
     17.140  0.2032E+01  0.2099E+02
     17.438  0.3687E+00  0.2110E+02
     17.736  0.1684E+01  0.2160E+02
     18.034  0.8984E+00  0.2187E+02
     18.332  0.9322E+00  0.2215E+02
     18.631  0.1713E+01  0.2266E+02
     18.929  0.3934E+01  0.2383E+02
     19.227  0.2017E+01  0.2443E+02
     19.525  0.1797E+01  0.2497E+02
     19.823  0.1636E+00  0.2502E+02
     20.121  0.3772E+00  0.2513E+02
     20.420  0.1267E+01  0.2551E+02
     20.718  0.1998E+01  0.2610E+02
     21.016  0.4242E+00  0.2623E+02
     21.314  0.1484E+01  0.2667E+02
     21.612  0.1759E+01  0.2720E+02
     21.911  0.2331E+01  0.2789E+02
     22.209  0.2985E+01  0.2878E+02
     22.507  0.9747E+00  0.2907E+02
     22.805  0.2477E+01  0.2981E+02
     23.103  0.1218E+01  0.3018E+02
     23.401  0.5717E+00  0.3035E+02
     23.700  0.3515E+01  0.3140E+02
     23.998  0.1544E+01  0.3186E+02
     24.296  0.9636E+00  0.3214E+02
     24.594  0.2168E+01  0.3279E+02
     24.892  0.2123E+01  0.3342E+02
     25.191  0.2022E+01  0.3403E+02
     25.489  0.1225E+01  0.3439E+02
     25.787  0.4245E+01  0.3566E+02
     26.085  0.1533E+01  0.3611E+02
     26.383  0.2020E+01  0.3672E+02
     26.681  0.5493E+00  0.3688E+02
     26.980  0.3102E+01  0.3780E+02
     27.278  0.7121E+00  0.3802E+02
     27.576  0.1029E+01  0.3832E+02
     27.874  0.2513E+01  0.3907E+02
     28.172  0.1165E+01  0.3942E+02
     28.471  0.2372E+01  0.4013E+02
     28.769  0.1044E+01  0.4044E+02
     29.067  0.1734E+01  0.4096E+02
     29.365  0.2699E+01  0.4176E+02
     29.663  0.6814E-01  0.4178E+02
     29.961  0.1545E+01  0.4224E+02
     30.260  0.1375E+01  0.4265E+02
     30.558  0.7410E+00  0.4287E+02
     30.856  0.1919E+01  0.4345E+02
     31.154  0.9789E+00  0.4374E+02
     31.452  0.2041E+01  0.4435E+02
     31.751  0.2159E+01  0.4499E+02
     32.049  0.3122E+01  0.4592E+02
     32.347  0.1567E+01  0.4639E+02
     32.645  0.2147E+01  0.4703E+02
     32.943  0.2451E+01  0.4776E+02
     33.241  0.3123E-01  0.4777E+02
     33.540  0.9962E+00  0.4807E+02
     33.838  0.2481E+01  0.4881E+02
     34.136  0.7342E+00  0.4902E+02
     34.434  0.1556E+01  0.4949E+02
     34.732  0.2723E+01  0.5030E+02
     35.031  0.2976E+01  0.5119E+02
     35.329  0.2599E+01  0.5196E+02
     35.627  0.1795E+01  0.5250E+02
     35.925  0.1062E+01  0.5281E+02
     36.223  0.1656E+01  0.5331E+02
     36.521  0.1528E+01  0.5376E+02
     36.820  0.1692E+01  0.5427E+02
     37.118  0.2032E+01  0.5488E+02
     37.416  0.3238E+01  0.5584E+02
     37.714  0.3291E+01  0.5682E+02
     38.012  0.2002E+01  0.5742E+02
     38.310  0.8124E+00  0.5766E+02
     38.609  0.8866E+00  0.5793E+02
     38.907  0.2225E+00  0.5799E+02
     39.205  0.4802E+01  0.5942E+02
     39.503  0.1332E+01  0.5982E+02
     39.801  0.2714E+01  0.6063E+02
     40.100  0.6249E+00  0.6082E+02
     40.398  0.6272E+00  0.6100E+02
     40.696  0.3246E+01  0.6197E+02
     40.994  0.1425E+01  0.6240E+02
     41.292  0.7422E+00  0.6262E+02
     41.590  0.1127E+01  0.6295E+02
     41.889  0.1993E+01  0.6355E+02
     42.187  0.2259E+01  0.6422E+02
     42.485  0.2324E+01  0.6491E+02
     42.783  0.2514E+01  0.6566E+02
     43.081  0.1904E+01  0.6623E+02
     43.380  0.1982E+01  0.6682E+02
     43.678  0.5877E+00  0.6700E+02
     43.976  0.1179E+01  0.6735E+02
     44.274  0.3067E+01  0.6827E+02
     44.572  0.2172E+01  0.6891E+02
     44.870  0.1336E+01  0.6931E+02
     45.169  0.1299E+01  0.6970E+02
     45.467  0.2801E+01  0.7053E+02
     45.765  0.4062E+01  0.7174E+02
     46.063  0.1209E+01  0.7211E+02
     46.361  0.1390E+01  0.7252E+02
     46.660  0.1522E+01  0.7297E+02
     46.958  0.1626E+01  0.7346E+02
     47.256  0.6973E+00  0.7367E+02
     47.554  0.4442E+01  0.7499E+02
     47.852  0.2577E+01  0.7576E+02
     48.150  0.1450E+01  0.7619E+02
     48.449  0.2510E+01  0.7694E+02
     48.747  0.1379E+01  0.7735E+02
     49.045  0.2219E+01  0.7801E+02
     49.343  0.4272E+01  0.7929E+02
     49.641  0.6161E+00  0.7947E+02
     49.940  0.1981E+01  0.8006E+02
     50.238  0.3712E+01  0.8117E+02
     50.536  0.9294E+00  0.8145E+02
     50.834  0.1574E+01  0.8192E+02
     51.132  0.5207E+00  0.8207E+02
     51.430  0.3475E+01  0.8311E+02
     51.729  0.2230E+01  0.8377E+02
     52.027  0.1209E+01  0.8413E+02
     52.325  0.3336E+01  0.8513E+02
     52.623  0.1275E+01  0.8551E+02
     52.921  0.2403E+01  0.8622E+02
     53.220  0.2749E+01  0.8704E+02
     53.518  0.3009E+01  0.8794E+02
     53.816  0.3445E+01  0.8897E+02
     54.114  0.3595E+01  0.9004E+02
     54.412  0.4848E+00  0.9019E+02
     54.710  0.9261E+00  0.9046E+02
     55.009  0.1535E+01  0.9092E+02
     55.307  0.1057E+01  0.9123E+02
     55.605  0.3478E+01  0.9227E+02
     55.903  0.3430E+01  0.9330E+02
     56.201  0.2465E+01  0.9403E+02
     56.500  0.2089E+01  0.9465E+02
     56.798  0.1852E+01  0.9521E+02
     57.096  0.9879E+00  0.9550E+02
     57.394  0.9314E-01  0.9553E+02
     57.692  0.8191E+00  0.9577E+02
     57.990  0.2410E+01  0.9649E+02
     58.289  0.1769E+01  0.9702E+02
     58.587  0.2657E+01  0.9781E+02
     58.885  0.3989E+01  0.9900E+02
     59.183  0.2030E+01  0.9961E+02
     59.481  0.1479E+01  0.1000E+03
     59.780  0.1630E+01  0.1005E+03
     60.078  0.2486E+01  0.1013E+03
     60.376  0.2158E+01  0.1019E+03
     60.674  0.3321E+01  0.1029E+03
     60.972  0.2588E+01  0.1037E+03
     61.270  0.4455E+01  0.1050E+03
     61.569  0.3103E+00  0.1051E+03
     61.867  0.1741E+01  0.1056E+03
     62.165  0.1445E+01  0.1061E+03
     62.463  0.2026E+01  0.1067E+03
     62.761  0.3789E+01  0.1078E+03
     63.060  0.2399E+01  0.1085E+03
     63.358  0.3919E+01  0.1097E+03
     63.656  0.1489E+01  0.1101E+03
     63.954  0.4095E+01  0.1113E+03
     64.252  0.2055E+01  0.1119E+03
     64.550  0.1762E+01  0.1125E+03
     64.849  0.4836E+01  0.1139E+03
     65.147  0.2603E+01  0.1147E+03
     65.445  0.1746E+01  0.1152E+03
     65.743  0.1709E+01  0.1157E+03
     66.041  0.2141E+01  0.1164E+03
     66.340  0.3967E+00  0.1165E+03
     66.638  0.1514E+01  0.1169E+03
     66.936  0.1991E+01  0.1175E+03
     67.234  0.2939E+01  0.1184E+03
     67.532  0.4260E+01  0.1197E+03
     67.830  0.3198E+01  0.1206E+03
     68.129  0.8294E+00  0.1209E+03
     68.427  0.2394E+01  0.1216E+03
     68.725  0.8757E+00  0.1218E+03
     69.023  0.2360E+01  0.1225E+03
     69.321  0.6372E+01  0.1244E+03
     69.620  0.3250E+01  0.1254E+03
     69.918  0.9885E+00  0.1257E+03
     70.216  0.1582E+01  0.1262E+03
     70.514  0.2189E+01  0.1268E+03
     70.812  0.2235E+01  0.1275E+03
     71.110  0.7982E+00  0.1277E+03
     71.409  0.7573E+00  0.1280E+03
     71.707  0.1442E-01  0.1280E+03
     72.005  0.0000E+00  0.1280E+03
     72.303  0.0000E+00  0.1280E+03
     72.601  0.0000E+00  0.1280E+03
     72.900  0.0000E+00  0.1280E+03
     73.198  0.0000E+00  0.1280E+03
     73.496  0.0000E+00  0.1280E+03
     73.794  0.0000E+00  0.1280E+03
     74.092  0.0000E+00  0.1280E+03
     74.390  0.1008E-03  0.1280E+03
     74.689  0.9306E-01  0.1280E+03
     74.987  0.0000E+00  0.1280E+03
     75.285  0.0000E+00  0.1280E+03
     75.583  0.0000E+00  0.1280E+03
     75.881  0.0000E+00  0.1280E+03
     76.180  0.0000E+00  0.1280E+03
     76.478  0.0000E+00  0.1280E+03
     76.776  0.0000E+00  0.1280E+03
     77.074  0.0000E+00  0.1280E+03
     77.372  0.0000E+00  0.1280E+03
     77.670  0.0000E+00  0.1280E+03
     77.969  0.0000E+00  0.1280E+03
     78.267  0.0000E+00  0.1280E+03
     78.565  0.0000E+00  0.1280E+03
