 vasp.6.5.0 16Dec24 (build Feb 18 2025 08:57:40) complex                         
 executed on             LinuxGNU date 2025.05.31  17:22:59
 running    4 mpi-ranks, with    8 threads/rank, on    1 nodes
 distrk:  each k-point on    4 cores,    1 groups
 distr:  one band on NCORE=   1 cores,    4 groups


--------------------------------------------------------------------------------------------------------


 INCAR:
   SYSTEM = cd Si GW0
   ISMEAR = 0
   SIGMA = 0.05
   ENCUT = 400
   NBANDS = 64
   NBANDSGW = 16
   ALGO = EVGW0
   NELMGW = 3

 POTCAR:    PAW_PBE Si_GW 04May2012               
 POTCAR:    PAW_PBE Si_GW 04May2012               
   VRHFIN =Si: s2p2                                                                                 
   LEXCH  = PE                                                                                      
   EATOM  =   103.0669 eV,    7.5752 Ry                                                             
                                                                                                    
   TITEL  = PAW_PBE Si_GW 04May2012                                                                 
   LULTRA =        F    use ultrasoft PP ?                                                          
   IUNSCR =        1    unscreen: 0-lin 1-nonlin 2-no                                               
   RPACOR =    1.500    partial core radius                                                         
   POMASS =   28.085; ZVAL   =    4.000    mass and valenz                                          
   RCORE  =    1.900    outmost cutoff radius                                                       
   RWIGS  =    2.480; RWIGS  =    1.312    wigner-seitz radius (au A)                               
   ENMAX  =  245.345; ENMIN  =  184.009 eV                                                          
   ICORE  =        3    local potential                                                             
   LCOR   =        T    correct aug charges                                                         
   LPAW   =        T    paw PP                                                                      
   EAUG   =  412.952                                                                                
   DEXC   =    0.000                                                                                
   RMAX   =    1.950    core radius for proj-oper                                                   
   RAUG   =    1.300    factor for augmentation sphere                                              
   RDEP   =    1.993    radius for radial grids                                                     
   RDEPT  =    2.000    core radius for aug-charge                                                  
                                                                                                    
   Atomic configuration                                                                             
    7 entries                                                                                       
     n  l   j            E        occ.                                                              
     1  0  0.50     -1785.8828   2.0000                                                             
     2  0  0.50      -139.4969   2.0000                                                             
     2  1  1.50       -95.5546   6.0000                                                             
     3  0  0.50       -10.8127   2.0000                                                             
     3  1  0.50        -4.0811   2.0000                                                             
     3  2  1.50        -4.0817   0.0000                                                             
     4  3  2.50        -4.0817   0.0000                                                             
   Description                                                                                      
     l       E           TYP  RCUT    TYP  RCUT                                                     
     0    -10.8127223     23  1.900                                                                 
     0     95.2407820     23  1.900                                                                 
     1     -4.0811372     23  1.900                                                                 
     1     54.4233040     23  1.900                                                                 
     2     -8.1634956     23  1.900                                                                 
     2     81.6349560     23  1.900                                                                 
     3     27.2116520     23  1.900                                                                 
  local pseudopotential read in
  partial core-charges read in
  partial kinetic energy density read in
  kinetic energy density of atom read in
  atomic valenz-charges read in
  non local Contribution for L=           0  read in
    real space projection operators read in
  non local Contribution for L=           0  read in
    real space projection operators read in
  non local Contribution for L=           1  read in
    real space projection operators read in
  non local Contribution for L=           1  read in
    real space projection operators read in
  non local Contribution for L=           2  read in
    real space projection operators read in
  non local Contribution for L=           2  read in
    real space projection operators read in
    PAW grid and wavefunctions read in

   number of l-projection  operators is LMAX  =           6
   number of lm-projection operators is LMMAX =          18

  PAW_PBE Si_GW 04May2012               :
 energy of atom  1       EATOM= -103.0669
 kinetic energy error for atom=    0.0012 (will be added to EATOM!!)


 POSCAR: cd Si
  positions in cartesian coordinates
  No initial velocities read in
 -----------------------------------------------------------------------------
|                                                                             |
|           W    W    AA    RRRRR   N    N  II  N    N   GGGG   !!!           |
|           W    W   A  A   R    R  NN   N  II  NN   N  G    G  !!!           |
|           W    W  A    A  R    R  N N  N  II  N N  N  G       !!!           |
|           W WW W  AAAAAA  RRRRR   N  N N  II  N  N N  G  GGG   !            |
|           WW  WW  A    A  R   R   N   NN  II  N   NN  G    G                |
|           W    W  A    A  R    R  N    N  II  N    N   GGGG   !!!           |
|                                                                             |
|     The default for ENCUTGWSOFT is different in this version of VASP.       |
|     If you wish to obtain identical results as using pre vasp.6.3           |
|     please manually set ENCUTGWSOFT =266.667 in the INCAR file.             |
|                                                                             |
 -----------------------------------------------------------------------------



 exchange-correlation table for PE
   RHO(1)=    0.500       N(1)  =     2000
   RHO(2)=  100.500       N(2)  =     4000



--------------------------------------------------------------------------------------------------------


 ion  position               nearest neighbor table
   1  0.000  0.000  0.000-   2 2.35   2 2.35   2 2.35   2 2.35
   2  0.250  0.250  0.250-   1 2.35   1 2.35   1 2.35   1 2.35

  LATTYP: Found a face centered cubic cell.
 ALAT       =     5.4300000000
  
  Lattice vectors:
  
 A1 = (   2.7150000000,   2.7150000000,   0.0000000000)
 A2 = (   0.0000000000,   2.7150000000,   2.7150000000)
 A3 = (   2.7150000000,   0.0000000000,   2.7150000000)


Analysis of symmetry for initial positions (statically):
=====================================================================
 Subroutine PRICEL returns:
 Original cell was already a primitive cell.
 

 Routine SETGRP: Setting up the symmetry group for a 
 face centered cubic supercell.


 Subroutine GETGRP returns: Found 48 space group operations
 (whereof 24 operations were pure point group operations)
 out of a pool of 48 trial point group operations.


The static configuration has the point symmetry T_d .
 The point group associated with its full space group is O_h .


Analysis of symmetry for dynamics (positions and initial velocities):
=====================================================================
 Subroutine PRICEL returns:
 Original cell was already a primitive cell.
 

 Routine SETGRP: Setting up the symmetry group for a 
 face centered cubic supercell.


 Subroutine GETGRP returns: Found 48 space group operations
 (whereof 24 operations were pure point group operations)
 out of a pool of 48 trial point group operations.


The dynamic configuration has the point symmetry T_d .
 The point group associated with its full space group is O_h .


 Subroutine INISYM returns: Found 48 space group operations
 (whereof 24 operations are pure point group operations),
 and found     1 'primitive' translations


----------------------------------------------------------------------------------------

                                     Primitive cell                                     

  volume of cell :      40.0258

  direct lattice vectors                    reciprocal lattice vectors
     2.715000000  2.715000000  0.000000000     0.184162063  0.184162063 -0.184162063
     0.000000000  2.715000000  2.715000000    -0.184162063  0.184162063  0.184162063
     2.715000000  0.000000000  2.715000000     0.184162063 -0.184162063  0.184162063

  length of vectors
     3.839589822  3.839589822  3.839589822     0.318978049  0.318978049  0.318978049

  position of ions in fractional coordinates (direct lattice)
     0.000000000  0.000000000  0.000000000
     0.250000000  0.250000000  0.250000000

  ion indices of the primitive-cell ions
   primitive index   ion index
                 1           1
                 2           2

----------------------------------------------------------------------------------------



 KPOINTS: k mesh                                  

Automatic generation of k-mesh.
 Grid dimensions read from file:
 generate k-points for:    6    6    6

 Generating k-lattice:

  Cartesian coordinates                     Fractional coordinates (reciprocal lattice)
     0.030693677  0.030693677 -0.030693677     0.166666667  0.000000000  0.000000000
    -0.030693677  0.030693677  0.030693677     0.000000000  0.166666667 -0.000000000
     0.030693677 -0.030693677  0.030693677    -0.000000000 -0.000000000  0.166666667

  Length of vectors
     0.053163008  0.053163008  0.053163008

  Shift w.r.t. Gamma in fractional coordinates (k-lattice)
     0.000000000  0.000000000  0.000000000

 
 Subroutine IBZKPT returns following result:
 ===========================================
 
 Found     16 irreducible k-points:
 
 Following reciprocal coordinates:
            Coordinates               Weight
  0.000000  0.000000  0.000000      1.000000
  0.166667  0.000000  0.000000      8.000000
  0.333333  0.000000  0.000000      8.000000
  0.500000  0.000000  0.000000      4.000000
  0.166667  0.166667  0.000000      6.000000
  0.333333  0.166667  0.000000     24.000000
  0.500000  0.166667  0.000000     24.000000
 -0.333333  0.166667  0.000000     24.000000
 -0.166667  0.166667  0.000000     12.000000
  0.333333  0.333333  0.000000      6.000000
  0.500000  0.333333  0.000000     24.000000
 -0.333333  0.333333  0.000000     12.000000
  0.500000  0.500000  0.000000      3.000000
  0.500000  0.333333  0.166667     24.000000
 -0.333333  0.333333  0.166667     24.000000
 -0.333333  0.500000  0.166667     12.000000
 
 Following cartesian coordinates:
            Coordinates               Weight
  0.000000  0.000000  0.000000      1.000000
  0.166667  0.166667 -0.166667      8.000000
  0.333333  0.333333 -0.333333      8.000000
  0.500000  0.500000 -0.500000      4.000000
  0.000000  0.333333  0.000000      6.000000
  0.166667  0.500000 -0.166667     24.000000
  0.333333  0.666667 -0.333333     24.000000
 -0.500000 -0.166667  0.500000     24.000000
 -0.333333  0.000000  0.333333     12.000000
  0.000000  0.666667  0.000000      6.000000
  0.166667  0.833333 -0.166667     24.000000
 -0.666667  0.000000  0.666667     12.000000
  0.000000  1.000000  0.000000      3.000000
  0.333333  0.666667  0.000000     24.000000
 -0.500000 -0.166667  0.833333     24.000000
 -0.666667  0.000000  1.000000     12.000000
 
 
 Subroutine IBZKPT_HF returns following result:
 ==============================================
 
 Found    216 k-points in 1st BZ
 the following    216 k-points will be used (e.g. in the exchange kernel)
 Following reciprocal coordinates:   # in IRBZ
  0.000000  0.000000  0.000000    0.00462963   1 t-inv F
  0.166667  0.000000  0.000000    0.00462963   2 t-inv F
  0.333333  0.000000  0.000000    0.00462963   3 t-inv F
  0.500000  0.000000  0.000000    0.00462963   4 t-inv F
  0.166667  0.166667  0.000000    0.00462963   5 t-inv F
  0.333333  0.166667  0.000000    0.00462963   6 t-inv F
  0.500000  0.166667  0.000000    0.00462963   7 t-inv F
 -0.333333  0.166667  0.000000    0.00462963   8 t-inv F
 -0.166667  0.166667  0.000000    0.00462963   9 t-inv F
  0.333333  0.333333  0.000000    0.00462963  10 t-inv F
  0.500000  0.333333  0.000000    0.00462963  11 t-inv F
 -0.333333  0.333333  0.000000    0.00462963  12 t-inv F
  0.500000  0.500000  0.000000    0.00462963  13 t-inv F
  0.500000  0.333333  0.166667    0.00462963  14 t-inv F
 -0.333333  0.333333  0.166667    0.00462963  15 t-inv F
 -0.333333  0.500000  0.166667    0.00462963  16 t-inv F
  0.000000  0.166667  0.000000    0.00462963   2 t-inv F
  0.000000  0.000000  0.166667    0.00462963   2 t-inv F
 -0.166667 -0.166667 -0.166667    0.00462963   2 t-inv F
 -0.166667 -0.000000 -0.000000    0.00462963   2 t-inv F
 -0.000000 -0.166667 -0.000000    0.00462963   2 t-inv F
 -0.000000 -0.000000 -0.166667    0.00462963   2 t-inv F
  0.166667  0.166667  0.166667    0.00462963   2 t-inv F
  0.000000  0.333333  0.000000    0.00462963   3 t-inv F
  0.000000  0.000000  0.333333    0.00462963   3 t-inv F
 -0.333333 -0.333333 -0.333333    0.00462963   3 t-inv F
 -0.333333 -0.000000 -0.000000    0.00462963   3 t-inv F
 -0.000000 -0.333333 -0.000000    0.00462963   3 t-inv F
 -0.000000 -0.000000 -0.333333    0.00462963   3 t-inv F
  0.333333  0.333333  0.333333    0.00462963   3 t-inv F
  0.000000  0.500000  0.000000    0.00462963   4 t-inv F
  0.000000  0.000000  0.500000    0.00462963   4 t-inv F
 -0.500000 -0.500000 -0.500000    0.00462963   4 t-inv F
  0.000000  0.166667  0.166667    0.00462963   5 t-inv F
  0.166667  0.000000  0.166667    0.00462963   5 t-inv F
 -0.166667 -0.166667  0.000000    0.00462963   5 t-inv F
 -0.166667  0.000000 -0.166667    0.00462963   5 t-inv F
  0.000000 -0.166667 -0.166667    0.00462963   5 t-inv F
  0.000000  0.333333  0.166667    0.00462963   6 t-inv F
  0.166667  0.000000  0.333333    0.00462963   6 t-inv F
 -0.166667 -0.166667  0.166667    0.00462963   6 t-inv F
 -0.333333 -0.166667 -0.333333    0.00462963   6 t-inv F
  0.166667  0.333333 -0.000000    0.00462963   6 t-inv F
  0.166667 -0.166667 -0.166667    0.00462963   6 t-inv F
 -0.333333 -0.333333 -0.166667    0.00462963   6 t-inv F
 -0.000000  0.166667  0.333333    0.00462963   6 t-inv F
 -0.166667  0.166667 -0.166667    0.00462963   6 t-inv F
 -0.166667 -0.333333 -0.333333    0.00462963   6 t-inv F
  0.333333 -0.000000  0.166667    0.00462963   6 t-inv F
 -0.333333 -0.166667 -0.000000    0.00462963   6 t-inv F
 -0.000000 -0.333333 -0.166667    0.00462963   6 t-inv F
 -0.166667 -0.000000 -0.333333    0.00462963   6 t-inv F
  0.166667  0.166667 -0.166667    0.00462963   6 t-inv F
  0.333333  0.166667  0.333333    0.00462963   6 t-inv F
 -0.166667 -0.333333  0.000000    0.00462963   6 t-inv F
 -0.166667  0.166667  0.166667    0.00462963   6 t-inv F
  0.333333  0.333333  0.166667    0.00462963   6 t-inv F
  0.000000 -0.166667 -0.333333    0.00462963   6 t-inv F
  0.166667 -0.166667  0.166667    0.00462963   6 t-inv F
  0.166667  0.333333  0.333333    0.00462963   6 t-inv F
 -0.333333  0.000000 -0.166667    0.00462963   6 t-inv F
  0.000000  0.500000  0.166667    0.00462963   7 t-inv F
  0.166667  0.000000  0.500000    0.00462963   7 t-inv F
 -0.166667 -0.166667  0.333333    0.00462963   7 t-inv F
 -0.500000 -0.333333 -0.500000    0.00462963   7 t-inv F
  0.166667  0.500000 -0.000000    0.00462963   7 t-inv F
  0.333333 -0.166667 -0.166667    0.00462963   7 t-inv F
 -0.500000 -0.500000 -0.333333    0.00462963   7 t-inv F
 -0.000000  0.166667  0.500000    0.00462963   7 t-inv F
 -0.166667  0.333333 -0.166667    0.00462963   7 t-inv F
 -0.333333 -0.500000 -0.500000    0.00462963   7 t-inv F
  0.500000 -0.000000  0.166667    0.00462963   7 t-inv F
 -0.500000 -0.166667 -0.000000    0.00462963   7 t-inv F
 -0.000000 -0.500000 -0.166667    0.00462963   7 t-inv F
 -0.166667 -0.000000 -0.500000    0.00462963   7 t-inv F
  0.166667  0.166667 -0.333333    0.00462963   7 t-inv F
  0.500000  0.333333  0.500000    0.00462963   7 t-inv F
 -0.166667 -0.500000  0.000000    0.00462963   7 t-inv F
 -0.333333  0.166667  0.166667    0.00462963   7 t-inv F
  0.500000  0.500000  0.333333    0.00462963   7 t-inv F
  0.000000 -0.166667 -0.500000    0.00462963   7 t-inv F
  0.166667 -0.333333  0.166667    0.00462963   7 t-inv F
  0.333333  0.500000  0.500000    0.00462963   7 t-inv F
 -0.500000  0.000000 -0.166667    0.00462963   7 t-inv F
  0.000000 -0.333333  0.166667    0.00462963   8 t-inv F
  0.166667  0.000000 -0.333333    0.00462963   8 t-inv F
 -0.166667 -0.166667 -0.500000    0.00462963   8 t-inv F
  0.333333  0.500000  0.333333    0.00462963   8 t-inv F
  0.166667 -0.333333 -0.000000    0.00462963   8 t-inv F
 -0.500000 -0.166667 -0.166667    0.00462963   8 t-inv F
  0.333333  0.333333  0.500000    0.00462963   8 t-inv F
 -0.000000  0.166667 -0.333333    0.00462963   8 t-inv F
 -0.166667 -0.500000 -0.166667    0.00462963   8 t-inv F
  0.500000  0.333333  0.333333    0.00462963   8 t-inv F
 -0.333333 -0.000000  0.166667    0.00462963   8 t-inv F
  0.333333 -0.166667 -0.000000    0.00462963   8 t-inv F
 -0.000000  0.333333 -0.166667    0.00462963   8 t-inv F
 -0.166667 -0.000000  0.333333    0.00462963   8 t-inv F
  0.166667  0.166667  0.500000    0.00462963   8 t-inv F
 -0.333333 -0.500000 -0.333333    0.00462963   8 t-inv F
 -0.166667  0.333333  0.000000    0.00462963   8 t-inv F
  0.500000  0.166667  0.166667    0.00462963   8 t-inv F
 -0.333333 -0.333333 -0.500000    0.00462963   8 t-inv F
  0.000000 -0.166667  0.333333    0.00462963   8 t-inv F
  0.166667  0.500000  0.166667    0.00462963   8 t-inv F
 -0.500000 -0.333333 -0.333333    0.00462963   8 t-inv F
  0.333333  0.000000 -0.166667    0.00462963   8 t-inv F
  0.000000 -0.166667  0.166667    0.00462963   9 t-inv F
  0.166667  0.000000 -0.166667    0.00462963   9 t-inv F
 -0.166667 -0.166667 -0.333333    0.00462963   9 t-inv F
  0.166667  0.333333  0.166667    0.00462963   9 t-inv F
  0.166667 -0.166667 -0.000000    0.00462963   9 t-inv F
 -0.333333 -0.166667 -0.166667    0.00462963   9 t-inv F
  0.166667  0.166667  0.333333    0.00462963   9 t-inv F
 -0.000000  0.166667 -0.166667    0.00462963   9 t-inv F
 -0.166667 -0.333333 -0.166667    0.00462963   9 t-inv F
  0.333333  0.166667  0.166667    0.00462963   9 t-inv F
 -0.166667 -0.000000  0.166667    0.00462963   9 t-inv F
  0.000000  0.333333  0.333333    0.00462963  10 t-inv F
  0.333333  0.000000  0.333333    0.00462963  10 t-inv F
 -0.333333 -0.333333  0.000000    0.00462963  10 t-inv F
 -0.333333 -0.000000 -0.333333    0.00462963  10 t-inv F
  0.000000 -0.333333 -0.333333    0.00462963  10 t-inv F
  0.000000  0.500000  0.333333    0.00462963  11 t-inv F
  0.333333  0.000000  0.500000    0.00462963  11 t-inv F
 -0.333333 -0.333333  0.166667    0.00462963  11 t-inv F
 -0.500000 -0.166667 -0.500000    0.00462963  11 t-inv F
  0.333333  0.500000 -0.000000    0.00462963  11 t-inv F
  0.166667 -0.333333 -0.333333    0.00462963  11 t-inv F
 -0.500000 -0.500000 -0.166667    0.00462963  11 t-inv F
 -0.000000  0.333333  0.500000    0.00462963  11 t-inv F
 -0.333333  0.166667 -0.333333    0.00462963  11 t-inv F
 -0.166667 -0.500000 -0.500000    0.00462963  11 t-inv F
  0.500000 -0.000000  0.333333    0.00462963  11 t-inv F
 -0.500000 -0.333333 -0.000000    0.00462963  11 t-inv F
 -0.000000 -0.500000 -0.333333    0.00462963  11 t-inv F
 -0.333333 -0.000000 -0.500000    0.00462963  11 t-inv F
  0.333333  0.333333 -0.166667    0.00462963  11 t-inv F
  0.500000  0.166667  0.500000    0.00462963  11 t-inv F
 -0.333333 -0.500000  0.000000    0.00462963  11 t-inv F
 -0.166667  0.333333  0.333333    0.00462963  11 t-inv F
  0.500000  0.500000  0.166667    0.00462963  11 t-inv F
  0.000000 -0.333333 -0.500000    0.00462963  11 t-inv F
  0.333333 -0.166667  0.333333    0.00462963  11 t-inv F
  0.166667  0.500000  0.500000    0.00462963  11 t-inv F
 -0.500000  0.000000 -0.333333    0.00462963  11 t-inv F
  0.000000 -0.333333  0.333333    0.00462963  12 t-inv F
  0.333333  0.000000 -0.333333    0.00462963  12 t-inv F
 -0.333333 -0.333333 -0.666667    0.00462963  12 t-inv F
  0.333333  0.666667  0.333333    0.00462963  12 t-inv F
  0.333333 -0.333333 -0.000000    0.00462963  12 t-inv F
 -0.666667 -0.333333 -0.333333    0.00462963  12 t-inv F
  0.333333  0.333333  0.666667    0.00462963  12 t-inv F
 -0.000000  0.333333 -0.333333    0.00462963  12 t-inv F
 -0.333333 -0.666667 -0.333333    0.00462963  12 t-inv F
  0.666667  0.333333  0.333333    0.00462963  12 t-inv F
 -0.333333 -0.000000  0.333333    0.00462963  12 t-inv F
  0.000000  0.500000  0.500000    0.00462963  13 t-inv F
  0.500000  0.000000  0.500000    0.00462963  13 t-inv F
  0.166667  0.500000  0.333333    0.00462963  14 t-inv F
  0.333333  0.166667  0.500000    0.00462963  14 t-inv F
 -0.333333 -0.166667  0.166667    0.00462963  14 t-inv F
 -0.500000 -0.166667 -0.333333    0.00462963  14 t-inv F
 -0.166667  0.333333  0.166667    0.00462963  14 t-inv F
  0.166667  0.333333 -0.166667    0.00462963  14 t-inv F
  0.166667 -0.166667 -0.333333    0.00462963  14 t-inv F
 -0.333333 -0.166667 -0.500000    0.00462963  14 t-inv F
 -0.333333 -0.500000 -0.166667    0.00462963  14 t-inv F
  0.166667 -0.166667  0.333333    0.00462963  14 t-inv F
  0.166667 -0.333333 -0.166667    0.00462963  14 t-inv F
 -0.166667  0.166667  0.333333    0.00462963  14 t-inv F
 -0.333333  0.166667 -0.166667    0.00462963  14 t-inv F
 -0.500000 -0.333333 -0.166667    0.00462963  14 t-inv F
 -0.166667 -0.333333 -0.500000    0.00462963  14 t-inv F
  0.333333  0.166667 -0.166667    0.00462963  14 t-inv F
 -0.166667  0.166667 -0.333333    0.00462963  14 t-inv F
  0.333333 -0.166667  0.166667    0.00462963  14 t-inv F
 -0.166667 -0.333333  0.166667    0.00462963  14 t-inv F
 -0.166667 -0.500000 -0.333333    0.00462963  14 t-inv F
  0.500000  0.166667  0.333333    0.00462963  14 t-inv F
  0.333333  0.500000  0.166667    0.00462963  14 t-inv F
  0.166667  0.333333  0.500000    0.00462963  14 t-inv F
  0.166667 -0.333333  0.333333    0.00462963  15 t-inv F
  0.333333  0.166667 -0.333333    0.00462963  15 t-inv F
 -0.333333 -0.166667 -0.666667    0.00462963  15 t-inv F
  0.333333  0.666667  0.500000    0.00462963  15 t-inv F
 -0.166667 -0.500000  0.166667    0.00462963  15 t-inv F
  0.166667 -0.500000 -0.166667    0.00462963  15 t-inv F
 -0.666667 -0.166667 -0.333333    0.00462963  15 t-inv F
  0.500000  0.666667  0.333333    0.00462963  15 t-inv F
  0.500000  0.333333  0.666667    0.00462963  15 t-inv F
  0.166667 -0.166667 -0.500000    0.00462963  15 t-inv F
 -0.666667 -0.333333 -0.166667    0.00462963  15 t-inv F
 -0.166667  0.166667 -0.500000    0.00462963  15 t-inv F
 -0.333333 -0.666667 -0.166667    0.00462963  15 t-inv F
  0.333333  0.500000  0.666667    0.00462963  15 t-inv F
  0.666667  0.500000  0.333333    0.00462963  15 t-inv F
 -0.500000  0.166667 -0.166667    0.00462963  15 t-inv F
 -0.166667 -0.666667 -0.333333    0.00462963  15 t-inv F
 -0.500000 -0.166667  0.166667    0.00462963  15 t-inv F
 -0.166667 -0.333333 -0.666667    0.00462963  15 t-inv F
  0.666667  0.333333  0.500000    0.00462963  15 t-inv F
 -0.333333  0.166667  0.333333    0.00462963  15 t-inv F
  0.333333 -0.333333  0.166667    0.00462963  15 t-inv F
  0.166667  0.333333 -0.333333    0.00462963  15 t-inv F
  0.166667 -0.333333  0.500000    0.00462963  16 t-inv F
  0.500000  0.166667 -0.333333    0.00462963  16 t-inv F
 -0.500000 -0.333333 -0.833333    0.00462963  16 t-inv F
  0.333333  0.833333  0.500000    0.00462963  16 t-inv F
 -0.166667 -0.500000  0.333333    0.00462963  16 t-inv F
  0.333333 -0.500000 -0.166667    0.00462963  16 t-inv F
  0.500000  0.833333  0.333333    0.00462963  16 t-inv F
  0.500000  0.333333  0.833333    0.00462963  16 t-inv F
 -0.833333 -0.500000 -0.333333    0.00462963  16 t-inv F
 -0.166667  0.333333 -0.500000    0.00462963  16 t-inv F
 -0.333333 -0.833333 -0.500000    0.00462963  16 t-inv F


--------------------------------------------------------------------------------------------------------




 Dimension of arrays:
   k-points           NKPTS =     16   k-points in BZ     NKDIM =    216   number of bands    NBANDS=     64
   number of dos      NEDOS =    301   number of ions     NIONS =      2
   non local maximal  LDIM  =      6   non local SUM 2l+1 LMDIM =     18
   total plane-waves  NPLWV =   8000
   max r-space proj   IRMAX =      1   max aug-charges    IRDMAX=  10010
   dimension x,y,z NGX =    20 NGY =   20 NGZ =   20
   dimension x,y,z NGXF=    40 NGYF=   40 NGZF=   40
   support grid    NGXF=    40 NGYF=   40 NGZF=   40
   ions per type =               2
   NGX,Y,Z   is equivalent  to a cutoff of   8.66,  8.66,  8.66 a.u.
   NGXF,Y,Z  is equivalent  to a cutoff of  17.32, 17.32, 17.32 a.u.

 SYSTEM =  cd Si GW0                               
 POSCAR =  cd Si                                   

 Startparameter for this run:
   NWRITE =      2    write-flag & timer
   PREC   = normal    normal or accurate (medium, high low for compatibility)
   ISTART =      1    job   : 0-new  1-cont  2-samecut
   ICHARG =      0    charge: 1-file 2-atom 10-const
   ISPIN  =      1    spin polarized calculation?
   LNONCOLLINEAR =      F non collinear calculations
   LSORBIT =      F    spin-orbit coupling
   INIWAV =      1    electr: 0-lowe 1-rand  2-diag
   LASPH  =      F    aspherical Exc in radial PAW
 Electronic Relaxation 1
   ENCUT  =  400.0 eV  29.40 Ry    5.42 a.u.   6.26  6.26  6.26*2*pi/ulx,y,z
   ENINI  =  400.0     initial cutoff
   ENAUG  =  413.0 eV  augmentation charge cutoff
   NELM   =     60;   NELMIN=  2; NELMDL=  0     # of ELM steps 
   EDIFF  = 0.1E-03   stopping-criterion for ELM
   LREAL  =      F    real-space projection
   NLSPLINE    = F    spline interpolate recip. space projectors
   LCOMPAT=      F    compatible to vasp.4.4
   GGA_COMPAT  = T    GGA compatible to vasp.4.4-vasp.4.6
   LMAXPAW     = -100 max onsite density
   LMAXMIX     =    2 max onsite mixed and CHGCAR
   VOSKOWN=      0    Vosko Wilk Nusair interpolation
   ROPT   =    0.00000
 Ionic relaxation
   EDIFFG = 0.1E-02   stopping-criterion for IOM
   NSW    =      0    number of steps for IOM
   NBLOCK =      1;   KBLOCK =      1    inner block; outer block 
   IBRION =     -1    ionic relax: 0-MD 1-quasi-New 2-CG
   NFREE  =      0    steps in history (QN), initial steepest desc. (CG)
   ISIF   =      0    stress and relaxation
   IWAVPR =     10    prediction:  0-non 1-charg 2-wave 3-comb
   ISYM   =      3    0-nonsym 1-usesym 2-fastsym
   LCORR  =      T    Harris-Foulkes like correction to forces

   POTIM  = 0.5000    time-step for ionic-motion
   TEIN   =    0.0    initial temperature
   TEBEG  =    0.0;   TEEND  =   0.0 temperature during run
   SMASS  =  -3.00    Nose mass-parameter (am)
   estimated Nose-frequenzy (Omega)   =  0.10E-29 period in steps = 0.13E+47 mass=  -0.337E-27a.u.
   SCALEE = 1.0000    scale energy and forces
   NPACO  =    256;   APACO  = 10.0  distance and # of slots for P.C.
   PSTRESS=    0.0 pullay stress

  Mass of Ions in am
   POMASS =  28.09
  Ionic Valenz
   ZVAL   =   4.00
  Atomic Wigner-Seitz radii
   RWIGS  =  -1.00
  virtual crystal weights 
   VCA    =   1.00
   NELECT =       8.0000    total number of electrons
   NUPDOWN=      -1.0000    fix difference up-down

 DOS related values:
   EMIN   =  10.00;   EMAX   =-10.00  energy-range for DOS
   EFERMI =   0.00;   METHOD = LEGACY      
   ISMEAR =     0;   SIGMA  =   0.05  broadening in eV -4-tet -1-fermi 0-gaus
   EFERMI_NEDOS =   21; number of points for ismear=-14 and -15

 Electronic relaxation 2 (details)
   IALGO  =     38    algorithm
   LDIAG  =      T    sub-space diagonalisation (order eigenvalues)
   LSUBROT=      F    optimize rotation matrix (better conditioning)
   TURBO    =      0    0=normal 1=particle mesh
   IRESTART =      0    0=no restart 2=restart with 2 vectors
   NREBOOT  =      0    no. of reboots
   NMIN     =      0    reboot dimension
   EREF     =   0.00    reference energy to select bands
   IMIX   =      4    mixing-type and parameters
     AMIX     =   0.40;   BMIX     =  1.00
     AMIX_MAG =   1.60;   BMIX_MAG =  1.00
     AMIN     =   0.10
     WC   =   100.;   INIMIX=   1;  MIXPRE=   1;  MAXMIX= -45

 Intra band minimization:
   WEIMIN = 0.0000     energy-eigenvalue tresh-hold
   EBREAK =  0.39E-06  absolut break condition
   DEPER  =   0.30     relativ break condition  

   TIME   =   0.40     timestep for ELM

  volume/ion in A,a.u.               =      20.01       135.05
  Fermi-wavevector in a.u.,A,eV,Ry     =   0.957176  1.808800 12.465458  0.916185
  Thomas-Fermi vector in A             =   2.086170

 Write flags
   LWAVE        =      T    write WAVECAR
   LDOWNSAMPLE  =      F    k-point downsampling of WAVECAR
   LCHARG       =      T    write CHGCAR
   LVTOT        =      F    write LOCPOT, total local potential
   LVHAR        =      F    write LOCPOT, Hartree potential only
   WRT_POTENTIAL= false  ! write potential to hdf5 file
   LELF         =      F    write electronic localiz. function (ELF)
   LORBIT       =      0    0 simple, 1 ext, 2 COOP (PROOUT), +10 PAW based schemes


 Python interface
   PLUGINS active      =      F    recompile with -DPLUGINS to activate

 Dipole corrections
   LMONO      =      F    monopole corrections only (constant potential shift)
   LDIPOL     =      F    correct potential (dipole corrections)
   IDIPOL     =      0    1-x, 2-y, 3-z, 4-all directions 
   EPSILON    =  1.0000000 bulk dielectric constant
   LVACPOTAV  =      F  vacuum potentials using an averaging scheme for the charge density
   VACPOTFLAT =  0.1000000 required flatness to determine vacuum potential

Coulomb truncation method
  LTRUNCATE          =      F  Coulomb kernel truncation to be used
  IDIMENSIONALITY    =      3  Dimensionality of cutoff (0 molecules / 2 surfaces)
  ISURFACE           =     -1  Direction of surface normal
  LCOARSEN           =      F  Coarsen the charge grid before padding, preferred


 Exchange correlation treatment:
   GGA     = PE    functional components
   XC_C    = 1    coefficients multiplying the functional components
   LIBXC   =     F    Libxc                    
   VOSKOWN =     0    Vosko Wilk Nusair interpolation
   EXXOEP  =     0    0=HF, 1=EXX-LHF (local Hartree Fock) 2=EXX OEP
   LHFCALC =     T    Hartree Fock is set to
   LSYMGRAD=     F    symmetrize gradient (conserves proper symmetry)
   PRECFOCK=normal    Normal, Fast or Accurate (Low or Medium for compatibility)
   LRHFCALC=     F    long range Hartree Fock
   LRSCOR  =     F    long range correlation only (use DFT for short range part)
   LTHOMAS =     F    Thomas Fermi screening in HF
   LMODELHF=     F    short range full HF, long range fraction AEXX
   FOCKCORR=     2    mode to apply convergence corrections
   LFOCKACE=     T    use Adeptively-Compressed-Exchange operator
   ENCUT4O =  -1.0   cutoff for four orbital integrals eV
   LMAXFOCK=     4    L truncation for augmentation on plane wave grid
   LMAXFOCKAE=   4    L truncation for all-electron charge restoration on plane wave grid
   NMAXFOCKAE=   1    number of basis functions for all-electron charge restoration
   LFOCKAEDFT=     F  apply the AE augmentation even for DFT
   NKREDX  =     1    reduce k-point grid by
   NKREDY  =     1    reduce k-point grid by
   NKREDZ  =     1    reduce k-point grid by
   SHIFTRED=     F    shift reduced grid of Gamma
   HFKIDENT=     F    idential grid for each k-point
   ODDONLY =     F    use only odd q-grid points
   EVENONLY=     F    use only even q-grid points
   HFALPHA =   -1.0000 decay constant for conv. correction
   MCALPHA =    0.0000 extent of test-charge in conv. correction in multipole expansion
   AEXX    =    1.0000 exact exchange contribution
   HFSCREEN=    0.0000 screening length (either q_TF or 0.3 A-1)
   HFSCREENC=   0.0000 screening length for correlation (either q_TF or 0.3 A-1)
   HFRCUT  =    0.0000 spherical cutoff for potential kernel
   ALDAX   =    0.0000 LDA exchange part
   AGGAX   =    0.0000 GGA exchange part
   AMGGAX  =    0.0000 meta-GGA exchange part
   ALDAC   =    0.0000 LDA correlation
   AGGAC   =    0.0000 GGA correlation
   AMGGAC  =    0.0000 meta-GGA correlation
   ENCUTFOCK=  -1.0 apply spherical cutoff to Coloumb kernel
   NBANDSGWLOW=     1    first orbital included in HF term
   NBLOCK_FOCK=    16    blocking factor in FOCK_ACC

 Parameters of functionals:
   PE:
     No parameter

 Van der Waals corrections
   IVDW    =     0    specifies the selected vdW correction

 Linear response parameters
   LEPSILON=     F    determine dielectric tensor
   LRPA    =     F    only Hartree local field effects (RPA)
   LNABLA  =     F    use nabla operator in PAW spheres
   LVEL    =     F    velocity operator in full k-point grid
   CSHIFT  =0.1000    complex shift for real part using Kramers Kronig
   OMEGAMAX=  -1.0    maximum frequency
   DEG_THRESHOLD= 0.2000000E-02 threshold for treating states as degnerate
   RTIME   =   -0.100 relaxation time in fs
  (WPLASMAI=    0.000 imaginary part of plasma frequency in eV, 0.658/RTIME)
   DFIELD  = 0.0000000 0.0000000 0.0000000 field for delta impulse in time

  Optional k-point grid parameters
   LKPOINTS_OPT  =     F    use optional k-point grid
   KPOINTS_OPT_MODE=     1    mode for optional k-point grid

 Orbital magnetization related:
   ORBITALMAG=     F  switch on orbital magnetization
   LCHIMAG   =     F  perturbation theory with respect to B field
   DQ        =  0.001000  dq finite difference perturbation B field
   LLRAUG    =     F  two centre corrections for induced B field
   LBONE     =     F  B-component reconstruction in AE one-centre
   LVGVCALC  =     T  calculate vGv susceptibility
   LVGVAPPL  =     F  apply vGv susceptibility instead of pGv for G=0

 Response functions by sum over occupied states:
   ALGO                =  EVGW0   selected many-body perturbation algorithm
   LALL_IN_ONE         =     F    all in one mode selected?
   IALL_IN_ONE         =    -1    all in one mode id
   NBANDS_WAVE         =    -1    number of bands written to file
   LFINITE_TEMPERATURE =     F    use finite temperature formalism
   LFXC                =     F    include DFT xc kernel in TD-HF and W
   LADDER              =     F    particle hole ladder diagrams for BSE/TD-HF and W (Nano-quanta)
   LRPAFORCE           =     F    calculate RPA forces
   LHARTREE            =     T    include Hartree terms (bubbles-RPA) in BSE/TD-HF
   IBSE                =     2    BSE modus: 0 exact, 1 time-evolution (store matrix), 10 time-evolution (implicit)
   KPOINT              =    -1   0   0   0    k-point index at which BSE equation is solved (and G at which response is eval.)
   LTRIPLET            =     F    triplet instead of singlet excitation (BSE only)
   LRSRPA              =     F    range separated RPA (total - short) in ACFDT
   LTCTC               =     F    use test-charge test-charge for self-energy (with ALGO=QPBSE)
   LTCTE               =     F    use test-charge test-electron dielectric function
   LTETE               =     F    use test-electron test-electron dielectric function
   LFXCEPS             =     F    determine f_xc=epsilon-1/Xi Sharma and Gross kernel
   LFXHEG              =     F    model exchange using f_x(G,k_F) from free electron gas
   NATURALO            =     2    0 natural orbitals, 1 only virtual, 2 only occupied-virtual rotation
   LHOLEGF             =     F    use holes in self-consistent GW 
   L2ORDER             =     F    2nd order terms only
   LDMP1               =     F    first order term in ACFDT routine is calculated
   LMP2LT              =     F    use LT MP2
   LSMP2LT             =     F    use stochastic LT MP2
   LGWLF               =     F    use W potentials for exchange like diagrams
   ENCUTGW             = 266.7    cutoff for response function in eV
   ENCUTGWSOFT         = 213.3    soft cutoff for Coulomb kernel in GW response function in eV
   ENCUTLF             =  -1.0    cutoff for local field effects
   ESF_SPLINES         =     F    tricubic spline interpolation of RPA/ACFDT electronic structure factor
   ESF_CONV            =   0.0    convergence threshhold for tricubic spline interpolation
   ESF_NINTER          =    15    maximum refinement factor for tricubic spline interpolation
   LMAXMP2             =    -1    maximum L for one center terms
   SCISSOR             =   0.0    scissor correction
   NOMEGA              =   100    number of frequencies
   NOMEGAR             =   100    number of frequencies along real axis
   NBANDSGW            =    16    number of bands for which selfenergy shift is calculated
   NBANDSGWLOW         =     1    lowest band included in GW (to exclude core correlation)
   NBANDSO             =    -1    number of bands for electron-hole treatment (occupied)
   NBANDSV             =    -1    number of bands for electron-hole treatment (virtual)
   NELMGW              =     3    number of iterations in solving QP/BSE equation
   NELMHF              =     1    number of iterations in the inner HF iteration
   DIM                 =     3    dimensionality of system (0=0D molecules, 3=3D)
   IEPSILON            =     4    cartesion direction for which dielectric function is calculated (4=all)
   ANTIRES             =     0    antiresonant part (0) no TDA (1) w=0 exact (2) accurate
   OMEGAMAX            = -30.0    maximum frequency
   OMEGAMIN            = -30.0    minimum frequency
   OMEGATL             =-200.0    maximum frequency of tail
   OMEGAGRID           =     0    grid type (0 default)
   CSHIFT              =  -0.1    complex shift used in evaluation of response functions
   LSELFENERGY         =     F    calculate selfenergy instead of QP shifts
   LSPECTRAL           =     T    use spectral functions                   
   LSPECTRALGW         =     F    use spectral functions to calculate int dz G(w-z) W(z) (more accurate)
   LSINGLES            =     F    calculate the singles contribution to the correlation energy
   LFERMIGW            =     F    update Fermi-energy in the Greens function

   ODDONLYGW           =     F    avoid all even points for polarizability 
   EVENONLYGW          =     F    avoid all odd  points for polarizability 
   NKREDLFX            =     1    NKREDLFY  =   1   NKREDLFZ  =   1

   TELESCOPE           =     0    use telescope k-point sampling
   NTAUPAR             =    -1    number of TAU groups used in imaginary time calculation
   NOMEGAPAR           =    -1    number of OMEGA groups used in imaginary frequency calculation
   DAMP_NEWTON         =0.8000    damping for Newton step for position update when RPA forces are used

 Random number generation:
   RANDOM_GENERATOR = DEFAULT
   PCG_SEED         = not used


--------------------------------------------------------------------------------------------------------


 Static calculation
 charge density and potential will be updated during run
 non-spin polarized calculation
 Variant of blocked Davidson
 Davidson routine will perform the subspace rotation
 perform sub-space diagonalisation
    after iterative eigenvector-optimisation
 modified Broyden-mixing scheme, WC =      100.0
 initial mixing is a Kerker type mixing with AMIX =  0.4000 and BMIX =      1.0000
 Hartree-type preconditioning will be used
 using additional bands           60
 reciprocal scheme for non local part
 use partial core corrections
 calculate Harris-corrections to forces   (improved forces if not selfconsistent)
 use gradient corrections 
 use of overlap-Matrix (Vanderbilt PP)
 Gauss-broadening in eV      SIGMA  =   0.05


--------------------------------------------------------------------------------------------------------


  energy-cutoff  :      400.00
  volume of cell :       40.03
      direct lattice vectors                 reciprocal lattice vectors
     2.715000000  2.715000000  0.000000000     0.184162063  0.184162063 -0.184162063
     0.000000000  2.715000000  2.715000000    -0.184162063  0.184162063  0.184162063
     2.715000000  0.000000000  2.715000000     0.184162063 -0.184162063  0.184162063

  length of vectors
     3.839589822  3.839589822  3.839589822     0.318978049  0.318978049  0.318978049



 old parameters found on file WAVECAR:
  energy-cutoff  :      400.00
  volume of cell :       40.03
      direct lattice vectors                 reciprocal lattice vectors
     2.715000000  2.715000000  0.000000000     0.184162063  0.184162063 -0.184162063
     0.000000000  2.715000000  2.715000000    -0.184162063  0.184162063  0.184162063
     2.715000000  0.000000000  2.715000000     0.184162063 -0.184162063  0.184162063

  length of vectors


 k-points in units of 2pi/SCALE and weight: k mesh                                  
   0.00000000  0.00000000  0.00000000       0.005
   0.16666667  0.16666667 -0.16666667       0.037
   0.33333333  0.33333333 -0.33333333       0.037
   0.50000000  0.50000000 -0.50000000       0.019
   0.00000000  0.33333333  0.00000000       0.028
   0.16666667  0.50000000 -0.16666667       0.111
   0.33333333  0.66666667 -0.33333333       0.111
  -0.50000000 -0.16666667  0.50000000       0.111
  -0.33333333  0.00000000  0.33333333       0.056
   0.00000000  0.66666667  0.00000000       0.028
   0.16666667  0.83333333 -0.16666667       0.111
  -0.66666667  0.00000000  0.66666667       0.056
   0.00000000  1.00000000  0.00000000       0.014
   0.33333333  0.66666667  0.00000000       0.111
  -0.50000000 -0.16666667  0.83333333       0.111
  -0.66666667  0.00000000  1.00000000       0.056

 k-points in reciprocal lattice and weights: k mesh                                  
   0.00000000  0.00000000  0.00000000       0.005
   0.16666667  0.00000000  0.00000000       0.037
   0.33333333  0.00000000  0.00000000       0.037
   0.50000000  0.00000000  0.00000000       0.019
   0.16666667  0.16666667  0.00000000       0.028
   0.33333333  0.16666667  0.00000000       0.111
   0.50000000  0.16666667  0.00000000       0.111
  -0.33333333  0.16666667  0.00000000       0.111
  -0.16666667  0.16666667  0.00000000       0.056
   0.33333333  0.33333333  0.00000000       0.028
   0.50000000  0.33333333  0.00000000       0.111
  -0.33333333  0.33333333  0.00000000       0.056
   0.50000000  0.50000000  0.00000000       0.014
   0.50000000  0.33333333  0.16666667       0.111
  -0.33333333  0.33333333  0.16666667       0.111
  -0.33333333  0.50000000  0.16666667       0.056

 position of ions in fractional coordinates (direct lattice) 
   0.00000000  0.00000000  0.00000000
   0.25000000  0.25000000  0.25000000

 position of ions in cartesian coordinates  (Angst):
   0.00000000  0.00000000  0.00000000
   1.35750000  1.35750000  1.35750000



--------------------------------------------------------------------------------------------------------


 k-point     1 :   0.0000 0.0000 0.0000  plane waves:     725
 k-point     2 :   0.1667 0.0000 0.0000  plane waves:     718
 k-point     3 :   0.3333 0.0000 0.0000  plane waves:     745
 k-point     4 :   0.5000 0.0000 0.0000  plane waves:     718
 k-point     5 :   0.1667 0.1667 0.0000  plane waves:     709
 k-point     6 :   0.3333 0.1667 0.0000  plane waves:     731
 k-point     7 :   0.5000 0.1667 0.0000  plane waves:     732
 k-point     8 :  -0.3333 0.1667 0.0000  plane waves:     726
 k-point     9 :  -0.1667 0.1667 0.0000  plane waves:     732
 k-point    10 :   0.3333 0.3333 0.0000  plane waves:     717
 k-point    11 :   0.5000 0.3333 0.0000  plane waves:     729
 k-point    12 :  -0.3333 0.3333 0.0000  plane waves:     718
 k-point    13 :   0.5000 0.5000 0.0000  plane waves:     740
 k-point    14 :   0.5000 0.3333 0.1667  plane waves:     728
 k-point    15 :  -0.3333 0.3333 0.1667  plane waves:     730
 k-point    16 :  -0.3333 0.5000 0.1667  plane waves:     718

 maximum and minimum number of plane-waves per node :       745      709

 maximum number of plane-waves:       745
 maximum index in each direction: 
   IXMAX=    6   IYMAX=    6   IZMAX=    6
   IXMIN=   -6   IYMIN=   -6   IZMIN=   -6


 serial   3D FFT for wavefunctions
 parallel 3D FFT for charge:
    minimum data exchange during FFTs selected (reduces bandwidth)


 Radii for the augmentation spheres in the non-local exchange
 for species   1 augmentation radius   1.124 (default was   1.124)
 error exchange integrals (PW-AE in eV) (mean, max) 1.11910.846 density error[0,qmax] 0.0476
 Maximum index for augmentation-charges in exchange          232
  SETUP_FOCK is finished

 total amount of memory used by VASP MPI-rank0    38376. kBytes
=======================================================================

   base                                    :      30000. kBytes
   nonl-proj                               :       1747. kBytes
   fftplans                                :        595. kBytes
   grid                                    :       1120. kBytes
   one-center                              :         31. kBytes
   HF                                      :        129. kBytes
   nonlr-proj                              :       1543. kBytes
   wavefun                                 :       3211. kBytes

     INWAV:  cpu time      0.0046: real time      0.0056
 Broyden mixing: mesh for mixing (old mesh)
   NGX = 13   NGY = 13   NGZ = 13
  (NGX  = 40   NGY  = 40   NGZ  = 40)
  gives a total of   2197 points

 charge density for first step will be calculated from the start-wavefunctions


--------------------------------------------------------------------------------------------------------


 Maximum index for augmentation-charges         2421 (set IRDMAX)


--------------------------------------------------------------------------------------------------------


 initial charge from wavefunction
 First call to EWALD:  gamma=   0.518
 Maximum number of real-space cells   3x   3x   3
 Maximum number of reciprocal cells   3x   3x   3

    FEWALD:  cpu time      0.0008: real time      0.0008
 -----------------------------------------------------------------------------
|                                                                             |
|           W    W    AA    RRRRR   N    N  II  N    N   GGGG   !!!           |
|           W    W   A  A   R    R  NN   N  II  NN   N  G    G  !!!           |
|           W    W  A    A  R    R  N N  N  II  N N  N  G       !!!           |
|           W WW W  AAAAAA  RRRRR   N  N N  II  N  N N  G  GGG   !            |
|           WW  WW  A    A  R   R   N   NN  II  N   NN  G    G                |
|           W    W  A    A  R    R  N    N  II  N    N   GGGG   !!!           |
|                                                                             |
|     Failed to automatically set available memory for this job. Please       |
|     set MAXMEM by hand, because the default value of 2800 MB might be       |
|     grossly inefficient.                                                    |
|                                                                             |
 -----------------------------------------------------------------------------


 The Fermi energy was updated, please check that it is located mid-gap
 values below the HOMO (VB) or above the LUMO (CB) will cause erroneous energies
 E-fermi :   5.4147

 Response functions by sum over occupied states:
 ===============================================
   NOMEGA  =   100    number of frequencies
   NOMEGAR =   100    number of frequencies along real axis
   OMEGAMAX=  13.09   maximum frequency
   OMEGAMIN=   0.51   minimum frequency
   OMEGATL = 170.18   maximum frequency of tail
   CSHIFT  =  0.170   complex shift used in evaluation of response functions


 Energies iw= 
 ============
    0.000    0.000    0.283    0.000    0.567    0.000    0.849    0.000
    1.131    0.000    1.412    0.000    1.692    0.000    1.970    0.000
    2.247    0.000    2.521    0.000    2.794    0.000    3.065    0.000
    3.333    0.000    3.600    0.000    3.863    0.000    4.125    0.000
    4.384    0.000    4.641    0.000    4.896    0.000    5.149    0.000
    5.399    0.000    5.647    0.000    5.894    0.000    6.138    0.000
    6.381    0.000    6.623    0.000    6.862    0.000    7.101    0.000
    7.339    0.000    7.575    0.000    7.811    0.000    8.047    0.000
    8.282    0.000    8.517    0.000    8.752    0.000    8.987    0.000
    9.223    0.000    9.459    0.000    9.697    0.000    9.936    0.000
   10.176    0.000   10.419    0.000   10.663    0.000   10.910    0.000
   11.159    0.000   11.412    0.000   11.668    0.000   11.927    0.000
   12.191    0.000   12.460    0.000   12.733    0.000   13.012    0.000
   13.297    0.000   13.589    0.000   13.887    0.000   14.194    0.000
   14.508    0.000   14.832    0.000   15.166    0.000   15.511    0.000
   15.867    0.000   16.237    0.000   16.620    0.000   17.018    0.000
   17.433    0.000   17.866    0.000   18.319    0.000   18.794    0.000
   19.292    0.000   19.817    0.000   20.370    0.000   20.955    0.000
   21.576    0.000   22.235    0.000   22.938    0.000   23.689    0.000
   24.496    0.000   25.362    0.000   26.299    0.000   27.313    0.000
   28.416    0.000   29.621    0.000   30.943    0.000   32.401    0.000
   34.017    0.000   35.820    0.000   37.843    0.000   40.129    0.000
   42.734    0.000   45.730    0.000   49.209    0.000   53.300    0.000
   58.176    0.000   64.086    0.000   71.392    0.000   80.651    0.000
   92.756    0.000  109.247    0.000  133.010    0.000  170.178    0.000


IMPORTANT INFORMATION: All symmetrisations will be switched off!
NOSYMM: (Re-)initialisation of all symmetry stuff for point group C_1.


 KPOINTS: k mesh                                  

Automatic generation of k-mesh.
 Grid dimensions read from file:
 generate k-points for:    6    6    6

 Generating k-lattice:

  Cartesian coordinates                     Fractional coordinates (reciprocal lattice)
     0.030693677  0.030693677 -0.030693677     0.166666667  0.000000000  0.000000000
    -0.030693677  0.030693677  0.030693677     0.000000000  0.166666667 -0.000000000
     0.030693677 -0.030693677  0.030693677    -0.000000000 -0.000000000  0.166666667

  Length of vectors
     0.053163008  0.053163008  0.053163008

  Shift w.r.t. Gamma in fractional coordinates (k-lattice)
     0.000000000  0.000000000  0.000000000

 
 Subroutine IBZKPT returns following result:
 ===========================================
 
 Found    216 irreducible k-points:
 
 Following reciprocal coordinates:
            Coordinates               Weight
  0.000000  0.000000  0.000000      1.000000
  0.166667  0.000000  0.000000      1.000000
 -0.166667  0.000000  0.000000      1.000000
  0.000000  0.166667  0.000000      1.000000
  0.000000 -0.166667  0.000000      1.000000
  0.000000  0.000000  0.166667      1.000000
  0.000000  0.000000 -0.166667      1.000000
  0.166667  0.166667  0.166667      1.000000
 -0.166667 -0.166667 -0.166667      1.000000
  0.333333  0.000000  0.000000      1.000000
 -0.333333  0.000000  0.000000      1.000000
  0.000000  0.333333  0.000000      1.000000
  0.000000 -0.333333  0.000000      1.000000
  0.000000  0.000000  0.333333      1.000000
  0.000000  0.000000 -0.333333      1.000000
  0.333333  0.333333  0.333333      1.000000
 -0.333333 -0.333333 -0.333333      1.000000
  0.500000  0.000000  0.000000      1.000000
  0.000000  0.500000  0.000000      1.000000
  0.000000  0.000000  0.500000      1.000000
  0.500000  0.500000  0.500000      1.000000
  0.166667  0.166667  0.000000      1.000000
 -0.166667 -0.166667  0.000000      1.000000
  0.000000  0.166667  0.166667      1.000000
  0.000000 -0.166667 -0.166667      1.000000
  0.166667  0.000000  0.166667      1.000000
 -0.166667  0.000000 -0.166667      1.000000
  0.333333  0.166667  0.000000      1.000000
 -0.333333 -0.166667  0.000000      1.000000
  0.000000  0.333333  0.166667      1.000000
  0.000000 -0.333333 -0.166667      1.000000
  0.166667  0.000000  0.333333      1.000000
 -0.166667  0.000000 -0.333333      1.000000
  0.166667  0.166667 -0.166667      1.000000
 -0.166667 -0.166667  0.166667      1.000000
  0.333333  0.166667  0.333333      1.000000
 -0.333333 -0.166667 -0.333333      1.000000
  0.166667  0.333333  0.000000      1.000000
 -0.166667 -0.333333  0.000000      1.000000
  0.166667 -0.166667 -0.166667      1.000000
 -0.166667  0.166667  0.166667      1.000000
  0.333333  0.333333  0.166667      1.000000
 -0.333333 -0.333333 -0.166667      1.000000
  0.000000  0.166667  0.333333      1.000000
  0.000000 -0.166667 -0.333333      1.000000
 -0.166667  0.166667 -0.166667      1.000000
  0.166667 -0.166667  0.166667      1.000000
  0.166667  0.333333  0.333333      1.000000
 -0.166667 -0.333333 -0.333333      1.000000
  0.333333  0.000000  0.166667      1.000000
 -0.333333  0.000000 -0.166667      1.000000
  0.500000  0.166667  0.000000      1.000000
  0.500000 -0.166667  0.000000      1.000000
  0.000000  0.500000  0.166667      1.000000
  0.000000  0.500000 -0.166667      1.000000
  0.166667  0.000000  0.500000      1.000000
 -0.166667  0.000000  0.500000      1.000000
  0.166667  0.166667 -0.333333      1.000000
 -0.166667 -0.166667  0.333333      1.000000
  0.500000  0.333333  0.500000      1.000000
  0.500000 -0.333333  0.500000      1.000000
  0.166667  0.500000  0.000000      1.000000
 -0.166667  0.500000  0.000000      1.000000
  0.333333 -0.166667 -0.166667      1.000000
 -0.333333  0.166667  0.166667      1.000000
  0.500000  0.500000  0.333333      1.000000
  0.500000  0.500000 -0.333333      1.000000
  0.000000  0.166667  0.500000      1.000000
  0.000000 -0.166667  0.500000      1.000000
 -0.166667  0.333333 -0.166667      1.000000
  0.166667 -0.333333  0.166667      1.000000
  0.333333  0.500000  0.500000      1.000000
 -0.333333  0.500000  0.500000      1.000000
  0.500000  0.000000  0.166667      1.000000
  0.500000  0.000000 -0.166667      1.000000
 -0.333333  0.166667  0.000000      1.000000
  0.333333 -0.166667  0.000000      1.000000
  0.000000 -0.333333  0.166667      1.000000
  0.000000  0.333333 -0.166667      1.000000
  0.166667  0.000000 -0.333333      1.000000
 -0.166667  0.000000  0.333333      1.000000
  0.166667  0.166667  0.500000      1.000000
 -0.166667 -0.166667  0.500000      1.000000
 -0.333333  0.500000 -0.333333      1.000000
  0.333333  0.500000  0.333333      1.000000
  0.166667 -0.333333  0.000000      1.000000
 -0.166667  0.333333  0.000000      1.000000
  0.500000 -0.166667 -0.166667      1.000000
  0.500000  0.166667  0.166667      1.000000
 -0.333333 -0.333333  0.500000      1.000000
  0.333333  0.333333  0.500000      1.000000
  0.000000  0.166667 -0.333333      1.000000
  0.000000 -0.166667  0.333333      1.000000
 -0.166667  0.500000 -0.166667      1.000000
  0.166667  0.500000  0.166667      1.000000
  0.500000 -0.333333 -0.333333      1.000000
  0.500000  0.333333  0.333333      1.000000
 -0.333333  0.000000  0.166667      1.000000
  0.333333  0.000000 -0.166667      1.000000
 -0.166667  0.166667  0.000000      1.000000
  0.166667 -0.166667  0.000000      1.000000
  0.000000 -0.166667  0.166667      1.000000
  0.000000  0.166667 -0.166667      1.000000
  0.166667  0.000000 -0.166667      1.000000
 -0.166667  0.000000  0.166667      1.000000
  0.166667  0.166667  0.333333      1.000000
 -0.166667 -0.166667 -0.333333      1.000000
 -0.166667 -0.333333 -0.166667      1.000000
  0.166667  0.333333  0.166667      1.000000
 -0.333333 -0.166667 -0.166667      1.000000
  0.333333  0.166667  0.166667      1.000000
  0.333333  0.333333  0.000000      1.000000
 -0.333333 -0.333333  0.000000      1.000000
  0.000000  0.333333  0.333333      1.000000
  0.000000 -0.333333 -0.333333      1.000000
  0.333333  0.000000  0.333333      1.000000
 -0.333333  0.000000 -0.333333      1.000000
  0.500000  0.333333  0.000000      1.000000
  0.500000 -0.333333  0.000000      1.000000
  0.000000  0.500000  0.333333      1.000000
  0.000000  0.500000 -0.333333      1.000000
  0.333333  0.000000  0.500000      1.000000
 -0.333333  0.000000  0.500000      1.000000
  0.333333  0.333333 -0.166667      1.000000
 -0.333333 -0.333333  0.166667      1.000000
  0.500000  0.166667  0.500000      1.000000
  0.500000 -0.166667  0.500000      1.000000
  0.333333  0.500000  0.000000      1.000000
 -0.333333  0.500000  0.000000      1.000000
  0.166667 -0.333333 -0.333333      1.000000
 -0.166667  0.333333  0.333333      1.000000
  0.500000  0.500000  0.166667      1.000000
  0.500000  0.500000 -0.166667      1.000000
  0.000000  0.333333  0.500000      1.000000
  0.000000 -0.333333  0.500000      1.000000
 -0.333333  0.166667 -0.333333      1.000000
  0.333333 -0.166667  0.333333      1.000000
  0.166667  0.500000  0.500000      1.000000
 -0.166667  0.500000  0.500000      1.000000
  0.500000  0.000000  0.333333      1.000000
  0.500000  0.000000 -0.333333      1.000000
 -0.333333  0.333333  0.000000      1.000000
  0.333333 -0.333333  0.000000      1.000000
  0.000000 -0.333333  0.333333      1.000000
  0.000000  0.333333 -0.333333      1.000000
  0.333333  0.000000 -0.333333      1.000000
 -0.333333  0.000000  0.333333      1.000000
  0.333333  0.333333 -0.333333      1.000000
 -0.333333 -0.333333  0.333333      1.000000
 -0.333333  0.333333 -0.333333      1.000000
  0.333333 -0.333333  0.333333      1.000000
  0.333333 -0.333333 -0.333333      1.000000
 -0.333333  0.333333  0.333333      1.000000
  0.500000  0.500000  0.000000      1.000000
  0.000000  0.500000  0.500000      1.000000
  0.500000  0.000000  0.500000      1.000000
  0.500000  0.333333  0.166667      1.000000
  0.500000 -0.333333 -0.166667      1.000000
  0.166667  0.500000  0.333333      1.000000
 -0.166667  0.500000 -0.333333      1.000000
  0.333333  0.166667  0.500000      1.000000
 -0.333333 -0.166667  0.500000      1.000000
  0.333333  0.166667 -0.166667      1.000000
 -0.333333 -0.166667  0.166667      1.000000
  0.500000  0.166667  0.333333      1.000000
  0.500000 -0.166667 -0.333333      1.000000
  0.166667 -0.333333 -0.166667      1.000000
 -0.166667  0.333333  0.166667      1.000000
  0.166667  0.333333 -0.166667      1.000000
 -0.166667 -0.333333  0.166667      1.000000
  0.166667 -0.166667 -0.333333      1.000000
 -0.166667  0.166667  0.333333      1.000000
  0.333333  0.500000  0.166667      1.000000
 -0.333333  0.500000 -0.166667      1.000000
 -0.166667  0.166667 -0.333333      1.000000
  0.166667 -0.166667  0.333333      1.000000
 -0.333333  0.166667 -0.166667      1.000000
  0.333333 -0.166667  0.166667      1.000000
  0.166667  0.333333  0.500000      1.000000
 -0.166667 -0.333333  0.500000      1.000000
 -0.333333  0.333333  0.166667      1.000000
  0.333333 -0.333333 -0.166667      1.000000
  0.166667 -0.333333  0.333333      1.000000
 -0.166667  0.333333 -0.333333      1.000000
  0.333333  0.166667 -0.333333      1.000000
 -0.333333 -0.166667  0.333333      1.000000
 -0.333333  0.333333  0.500000      1.000000
  0.333333 -0.333333  0.500000      1.000000
  0.166667  0.500000 -0.166667      1.000000
 -0.166667  0.500000  0.166667      1.000000
  0.333333 -0.166667 -0.333333      1.000000
 -0.333333  0.166667  0.333333      1.000000
  0.500000 -0.333333  0.333333      1.000000
  0.500000  0.333333 -0.333333      1.000000
 -0.166667  0.166667  0.500000      1.000000
  0.166667 -0.166667  0.500000      1.000000
 -0.333333  0.333333 -0.166667      1.000000
  0.333333 -0.333333  0.166667      1.000000
  0.333333  0.500000 -0.333333      1.000000
 -0.333333  0.500000  0.333333      1.000000
  0.500000 -0.166667  0.166667      1.000000
  0.500000  0.166667 -0.166667      1.000000
 -0.166667 -0.333333  0.333333      1.000000
  0.166667  0.333333 -0.333333      1.000000
 -0.333333  0.500000  0.166667      1.000000
  0.333333  0.500000 -0.166667      1.000000
  0.166667 -0.333333  0.500000      1.000000
 -0.166667  0.333333  0.500000      1.000000
  0.500000  0.166667 -0.333333      1.000000
  0.500000 -0.166667  0.333333      1.000000
  0.500000  0.333333 -0.166667      1.000000
  0.500000 -0.333333  0.166667      1.000000
 -0.333333  0.166667  0.500000      1.000000
  0.333333 -0.166667  0.500000      1.000000
  0.166667  0.500000 -0.333333      1.000000
 -0.166667  0.500000  0.333333      1.000000
 
 Following cartesian coordinates:
            Coordinates               Weight
  0.000000  0.000000  0.000000      1.000000
  0.166667  0.166667 -0.166667      1.000000
 -0.166667 -0.166667  0.166667      1.000000
 -0.166667  0.166667  0.166667      1.000000
  0.166667 -0.166667 -0.166667      1.000000
  0.166667 -0.166667  0.166667      1.000000
 -0.166667  0.166667 -0.166667      1.000000
  0.166667  0.166667  0.166667      1.000000
 -0.166667 -0.166667 -0.166667      1.000000
  0.333333  0.333333 -0.333333      1.000000
 -0.333333 -0.333333  0.333333      1.000000
 -0.333333  0.333333  0.333333      1.000000
  0.333333 -0.333333 -0.333333      1.000000
  0.333333 -0.333333  0.333333      1.000000
 -0.333333  0.333333 -0.333333      1.000000
  0.333333  0.333333  0.333333      1.000000
 -0.333333 -0.333333 -0.333333      1.000000
  0.500000  0.500000 -0.500000      1.000000
 -0.500000  0.500000  0.500000      1.000000
  0.500000 -0.500000  0.500000      1.000000
  0.500000  0.500000  0.500000      1.000000
  0.000000  0.333333  0.000000      1.000000
  0.000000 -0.333333  0.000000      1.000000
  0.000000  0.000000  0.333333      1.000000
  0.000000  0.000000 -0.333333      1.000000
  0.333333  0.000000  0.000000      1.000000
 -0.333333  0.000000  0.000000      1.000000
  0.166667  0.500000 -0.166667      1.000000
 -0.166667 -0.500000  0.166667      1.000000
 -0.166667  0.166667  0.500000      1.000000
  0.166667 -0.166667 -0.500000      1.000000
  0.500000 -0.166667  0.166667      1.000000
 -0.500000  0.166667 -0.166667      1.000000
 -0.166667  0.500000 -0.166667      1.000000
  0.166667 -0.500000  0.166667      1.000000
  0.500000  0.166667  0.166667      1.000000
 -0.500000 -0.166667 -0.166667      1.000000
 -0.166667  0.500000  0.166667      1.000000
  0.166667 -0.500000 -0.166667      1.000000
  0.166667  0.166667 -0.500000      1.000000
 -0.166667 -0.166667  0.500000      1.000000
  0.166667  0.500000  0.166667      1.000000
 -0.166667 -0.500000 -0.166667      1.000000
  0.166667 -0.166667  0.500000      1.000000
 -0.166667  0.166667 -0.500000      1.000000
 -0.500000  0.166667  0.166667      1.000000
  0.500000 -0.166667 -0.166667      1.000000
  0.166667  0.166667  0.500000      1.000000
 -0.166667 -0.166667 -0.500000      1.000000
  0.500000  0.166667 -0.166667      1.000000
 -0.500000 -0.166667  0.166667      1.000000
  0.333333  0.666667 -0.333333      1.000000
  0.666667  0.333333 -0.666667      1.000000
 -0.333333  0.333333  0.666667      1.000000
 -0.666667  0.666667  0.333333      1.000000
  0.666667 -0.333333  0.333333      1.000000
  0.333333 -0.666667  0.666667      1.000000
 -0.333333  0.666667 -0.333333      1.000000
  0.333333 -0.666667  0.333333      1.000000
  0.666667  0.333333  0.333333      1.000000
  1.333333 -0.333333 -0.333333      1.000000
 -0.333333  0.666667  0.333333      1.000000
 -0.666667  0.333333  0.666667      1.000000
  0.333333  0.333333 -0.666667      1.000000
 -0.333333 -0.333333  0.666667      1.000000
  0.333333  0.666667  0.333333      1.000000
 -0.333333  1.333333 -0.333333      1.000000
  0.333333 -0.333333  0.666667      1.000000
  0.666667 -0.666667  0.333333      1.000000
 -0.666667  0.333333  0.333333      1.000000
  0.666667 -0.333333 -0.333333      1.000000
  0.333333  0.333333  0.666667      1.000000
 -0.333333 -0.333333  1.333333      1.000000
  0.666667  0.333333 -0.333333      1.000000
  0.333333  0.666667 -0.666667      1.000000
 -0.500000 -0.166667  0.500000      1.000000
  0.500000  0.166667 -0.500000      1.000000
  0.500000 -0.500000 -0.166667      1.000000
 -0.500000  0.500000  0.166667      1.000000
 -0.166667  0.500000 -0.500000      1.000000
  0.166667 -0.500000  0.500000      1.000000
  0.500000 -0.166667  0.500000      1.000000
  0.500000 -0.833333  0.500000      1.000000
 -1.166667  0.500000  0.500000      1.000000
  0.166667  0.500000  0.500000      1.000000
  0.500000 -0.166667 -0.500000      1.000000
 -0.500000  0.166667  0.500000      1.000000
  0.500000  0.500000 -0.833333      1.000000
  0.500000  0.500000 -0.166667      1.000000
  0.500000 -1.166667  0.500000      1.000000
  0.500000  0.166667  0.500000      1.000000
 -0.500000  0.500000 -0.166667      1.000000
  0.500000 -0.500000  0.166667      1.000000
 -0.833333  0.500000  0.500000      1.000000
 -0.166667  0.500000  0.500000      1.000000
  0.500000  0.500000 -1.166667      1.000000
  0.500000  0.500000  0.166667      1.000000
 -0.166667 -0.500000  0.500000      1.000000
  0.166667  0.500000 -0.500000      1.000000
 -0.333333  0.000000  0.333333      1.000000
  0.333333  0.000000 -0.333333      1.000000
  0.333333 -0.333333  0.000000      1.000000
 -0.333333  0.333333  0.000000      1.000000
  0.000000  0.333333 -0.333333      1.000000
  0.000000 -0.333333  0.333333      1.000000
  0.333333  0.000000  0.333333      1.000000
 -0.333333  0.000000 -0.333333      1.000000
  0.000000 -0.333333 -0.333333      1.000000
  0.000000  0.333333  0.333333      1.000000
 -0.333333 -0.333333  0.000000      1.000000
  0.333333  0.333333  0.000000      1.000000
  0.000000  0.666667  0.000000      1.000000
  0.000000 -0.666667  0.000000      1.000000
  0.000000  0.000000  0.666667      1.000000
  0.000000  0.000000 -0.666667      1.000000
  0.666667  0.000000  0.000000      1.000000
 -0.666667  0.000000  0.000000      1.000000
  0.166667  0.833333 -0.166667      1.000000
  0.833333  0.166667 -0.833333      1.000000
 -0.166667  0.166667  0.833333      1.000000
 -0.833333  0.833333  0.166667      1.000000
  0.833333 -0.166667  0.166667      1.000000
  0.166667 -0.833333  0.833333      1.000000
 -0.166667  0.833333 -0.166667      1.000000
  0.166667 -0.833333  0.166667      1.000000
  0.833333  0.166667  0.166667      1.000000
  1.166667 -0.166667 -0.166667      1.000000
 -0.166667  0.833333  0.166667      1.000000
 -0.833333  0.166667  0.833333      1.000000
  0.166667  0.166667 -0.833333      1.000000
 -0.166667 -0.166667  0.833333      1.000000
  0.166667  0.833333  0.166667      1.000000
 -0.166667  1.166667 -0.166667      1.000000
  0.166667 -0.166667  0.833333      1.000000
  0.833333 -0.833333  0.166667      1.000000
 -0.833333  0.166667  0.166667      1.000000
  0.833333 -0.166667 -0.166667      1.000000
  0.166667  0.166667  0.833333      1.000000
 -0.166667 -0.166667  1.166667      1.000000
  0.833333  0.166667 -0.166667      1.000000
  0.166667  0.833333 -0.833333      1.000000
 -0.666667  0.000000  0.666667      1.000000
  0.666667  0.000000 -0.666667      1.000000
  0.666667 -0.666667  0.000000      1.000000
 -0.666667  0.666667  0.000000      1.000000
  0.000000  0.666667 -0.666667      1.000000
  0.000000 -0.666667  0.666667      1.000000
 -0.333333  1.000000 -0.333333      1.000000
  0.333333 -1.000000  0.333333      1.000000
 -1.000000  0.333333  0.333333      1.000000
  1.000000 -0.333333 -0.333333      1.000000
  0.333333  0.333333 -1.000000      1.000000
 -0.333333 -0.333333  1.000000      1.000000
  0.000000  1.000000  0.000000      1.000000
  0.000000  0.000000  1.000000      1.000000
  1.000000  0.000000  0.000000      1.000000
  0.333333  0.666667  0.000000      1.000000
  0.666667  0.333333 -1.000000      1.000000
  0.000000  0.333333  0.666667      1.000000
 -1.000000  0.666667  0.333333      1.000000
  0.666667  0.000000  0.333333      1.000000
  0.333333 -1.000000  0.666667      1.000000
  0.000000  0.666667 -0.333333      1.000000
  0.000000 -0.666667  0.333333      1.000000
  0.666667  0.333333  0.000000      1.000000
  0.333333  0.666667 -1.000000      1.000000
  0.333333  0.000000 -0.666667      1.000000
 -0.333333  0.000000  0.666667      1.000000
 -0.333333  0.666667  0.000000      1.000000
  0.333333 -0.666667  0.000000      1.000000
  0.000000  0.333333 -0.666667      1.000000
  0.000000 -0.333333  0.666667      1.000000
  0.000000  0.666667  0.333333      1.000000
 -1.000000  0.333333  0.666667      1.000000
 -0.666667  0.333333  0.000000      1.000000
  0.666667 -0.333333  0.000000      1.000000
 -0.666667  0.000000  0.333333      1.000000
  0.666667  0.000000 -0.333333      1.000000
  0.333333  0.000000  0.666667      1.000000
  0.666667 -1.000000  0.333333      1.000000
 -0.500000 -0.166667  0.833333      1.000000
  0.500000  0.166667 -0.833333      1.000000
  0.833333 -0.500000 -0.166667      1.000000
 -0.833333  0.500000  0.166667      1.000000
 -0.166667  0.833333 -0.500000      1.000000
  0.166667 -0.833333  0.500000      1.000000
 -0.166667 -0.500000  1.166667      1.000000
  1.166667 -0.500000 -0.166667      1.000000
 -0.500000  0.833333  0.166667      1.000000
 -0.500000  0.166667  0.833333      1.000000
  0.166667  0.500000 -0.833333      1.000000
 -0.166667 -0.500000  0.833333      1.000000
  1.166667 -0.166667 -0.500000      1.000000
 -0.166667  1.166667 -0.500000      1.000000
  0.166667 -0.500000  0.833333      1.000000
  0.833333 -0.500000  0.166667      1.000000
 -0.833333  0.166667  0.500000      1.000000
  0.833333 -0.166667 -0.500000      1.000000
 -0.500000  1.166667 -0.166667      1.000000
 -0.500000 -0.166667  1.166667      1.000000
  0.833333  0.166667 -0.500000      1.000000
  0.166667  0.833333 -0.500000      1.000000
  0.500000 -0.833333  0.166667      1.000000
 -0.500000  0.833333 -0.166667      1.000000
 -0.666667  0.000000  1.000000      1.000000
 -0.333333  1.000000  0.000000      1.000000
  1.000000 -0.666667  0.000000      1.000000
  0.000000 -0.333333  1.000000      1.000000
  0.000000  1.000000 -0.666667      1.000000
  1.000000  0.000000 -0.333333      1.000000
  0.000000  1.000000 -0.333333      1.000000
  1.000000  0.000000 -0.666667      1.000000
  0.000000 -0.666667  1.000000      1.000000
  1.000000 -0.333333  0.000000      1.000000
 -0.666667  1.000000  0.000000      1.000000
 -0.333333  0.000000  1.000000      1.000000
 
 files read and symmetry switched off, memory is now:
 total amount of memory used by VASP MPI-rank0   104950. kBytes
=======================================================================

   base                                    :      30000. kBytes
   nonl-proj                               :      23289. kBytes
   fftplans                                :        595. kBytes
   grid                                    :       1120. kBytes
   one-center                              :         31. kBytes
   HF                                      :        129. kBytes
   nonlr-proj                              :       1543. kBytes
   wavefun                                 :      43352. kBytes
   fock_wrk                                :       4498. kBytes
   cder                                    :        393. kBytes

 Basis sets for responsefunctions:
 =================================
 k-point     1 :   0.0000 0.0000 0.0000  plane waves:     411
 k-point     2 :   0.1667 0.0000 0.0000  plane waves:     387
 k-point     3 :   0.3333 0.0000 0.0000  plane waves:     401
 k-point     4 :   0.5000 0.0000 0.0000  plane waves:     392
 k-point     5 :   0.1667 0.1667 0.0000  plane waves:     399
 k-point     6 :   0.3333 0.1667 0.0000  plane waves:     390
 k-point     7 :   0.5000 0.1667 0.0000  plane waves:     393
 k-point     8 :  -0.3333 0.1667 0.0000  plane waves:     394
 k-point     9 :  -0.1667 0.1667 0.0000  plane waves:     389
 k-point    10 :   0.3333 0.3333 0.0000  plane waves:     387
 k-point    11 :   0.5000 0.3333 0.0000  plane waves:     402
 k-point    12 :  -0.3333 0.3333 0.0000  plane waves:     403
 k-point    13 :   0.5000 0.5000 0.0000  plane waves:     388
 k-point    14 :   0.5000 0.3333 0.1667  plane waves:     405
 k-point    15 :  -0.3333 0.3333 0.1667  plane waves:     394
 k-point    16 :  -0.3333 0.5000 0.1667  plane waves:     398
 k-point    17 :  -0.1667-0.0000-0.0000  plane waves:     387
 k-point    18 :   0.0000 0.1667 0.0000  plane waves:     387
 k-point    19 :  -0.0000-0.1667-0.0000  plane waves:     387
 k-point    20 :   0.0000 0.0000 0.1667  plane waves:     387
 k-point    21 :  -0.0000-0.0000-0.1667  plane waves:     387
 k-point    22 :   0.1667 0.1667 0.1667  plane waves:     387
 k-point    23 :  -0.1667-0.1667-0.1667  plane waves:     387
 k-point    24 :  -0.3333-0.0000-0.0000  plane waves:     401
 k-point    25 :   0.0000 0.3333 0.0000  plane waves:     401
 k-point    26 :  -0.0000-0.3333-0.0000  plane waves:     401
 k-point    27 :   0.0000 0.0000 0.3333  plane waves:     401
 k-point    28 :  -0.0000-0.0000-0.3333  plane waves:     401
 k-point    29 :   0.3333 0.3333 0.3333  plane waves:     401
 k-point    30 :  -0.3333-0.3333-0.3333  plane waves:     401
 k-point    31 :   0.0000 0.5000 0.0000  plane waves:     392
 k-point    32 :   0.0000 0.0000 0.5000  plane waves:     392
 k-point    33 :  -0.5000-0.5000-0.5000  plane waves:     392
 k-point    34 :  -0.1667-0.1667 0.0000  plane waves:     399
 k-point    35 :   0.0000 0.1667 0.1667  plane waves:     399
 k-point    36 :   0.0000-0.1667-0.1667  plane waves:     399
 k-point    37 :   0.1667 0.0000 0.1667  plane waves:     399
 k-point    38 :  -0.1667 0.0000-0.1667  plane waves:     399
 k-point    39 :  -0.3333-0.1667-0.0000  plane waves:     390
 k-point    40 :   0.0000 0.3333 0.1667  plane waves:     390
 k-point    41 :  -0.0000-0.3333-0.1667  plane waves:     390
 k-point    42 :   0.1667 0.0000 0.3333  plane waves:     390
 k-point    43 :  -0.1667-0.0000-0.3333  plane waves:     390
 k-point    44 :   0.1667 0.1667-0.1667  plane waves:     390
 k-point    45 :  -0.1667-0.1667 0.1667  plane waves:     390
 k-point    46 :   0.3333 0.1667 0.3333  plane waves:     390
 k-point    47 :  -0.3333-0.1667-0.3333  plane waves:     390
 k-point    48 :   0.1667 0.3333-0.0000  plane waves:     390
 k-point    49 :  -0.1667-0.3333 0.0000  plane waves:     390
 k-point    50 :   0.1667-0.1667-0.1667  plane waves:     390
 k-point    51 :  -0.1667 0.1667 0.1667  plane waves:     390
 k-point    52 :   0.3333 0.3333 0.1667  plane waves:     390
 k-point    53 :  -0.3333-0.3333-0.1667  plane waves:     390
 k-point    54 :  -0.0000 0.1667 0.3333  plane waves:     390
 k-point    55 :   0.0000-0.1667-0.3333  plane waves:     390
 k-point    56 :  -0.1667 0.1667-0.1667  plane waves:     390
 k-point    57 :   0.1667-0.1667 0.1667  plane waves:     390
 k-point    58 :   0.1667 0.3333 0.3333  plane waves:     390
 k-point    59 :  -0.1667-0.3333-0.3333  plane waves:     390
 k-point    60 :   0.3333-0.0000 0.1667  plane waves:     390
 k-point    61 :  -0.3333 0.0000-0.1667  plane waves:     390
 k-point    62 :  -0.5000-0.1667-0.0000  plane waves:     393
 k-point    63 :   0.0000 0.5000 0.1667  plane waves:     393
 k-point    64 :  -0.0000-0.5000-0.1667  plane waves:     393
 k-point    65 :   0.1667 0.0000 0.5000  plane waves:     393
 k-point    66 :  -0.1667-0.0000-0.5000  plane waves:     393
 k-point    67 :   0.1667 0.1667-0.3333  plane waves:     393
 k-point    68 :  -0.1667-0.1667 0.3333  plane waves:     393
 k-point    69 :   0.5000 0.3333 0.5000  plane waves:     393
 k-point    70 :  -0.5000-0.3333-0.5000  plane waves:     393
 k-point    71 :   0.1667 0.5000-0.0000  plane waves:     393
 k-point    72 :  -0.1667-0.5000 0.0000  plane waves:     393
 k-point    73 :   0.3333-0.1667-0.1667  plane waves:     393
 k-point    74 :  -0.3333 0.1667 0.1667  plane waves:     393
 k-point    75 :   0.5000 0.5000 0.3333  plane waves:     393
 k-point    76 :  -0.5000-0.5000-0.3333  plane waves:     393
 k-point    77 :  -0.0000 0.1667 0.5000  plane waves:     393
 k-point    78 :   0.0000-0.1667-0.5000  plane waves:     393
 k-point    79 :  -0.1667 0.3333-0.1667  plane waves:     393
 k-point    80 :   0.1667-0.3333 0.1667  plane waves:     393
 k-point    81 :   0.3333 0.5000 0.5000  plane waves:     393
 k-point    82 :  -0.3333-0.5000-0.5000  plane waves:     393
 k-point    83 :   0.5000-0.0000 0.1667  plane waves:     393
 k-point    84 :  -0.5000 0.0000-0.1667  plane waves:     393
 k-point    85 :   0.3333-0.1667-0.0000  plane waves:     394
 k-point    86 :   0.0000-0.3333 0.1667  plane waves:     394
 k-point    87 :  -0.0000 0.3333-0.1667  plane waves:     394
 k-point    88 :   0.1667 0.0000-0.3333  plane waves:     394
 k-point    89 :  -0.1667-0.0000 0.3333  plane waves:     394
 k-point    90 :   0.1667 0.1667 0.5000  plane waves:     394
 k-point    91 :  -0.1667-0.1667-0.5000  plane waves:     394
 k-point    92 :  -0.3333-0.5000-0.3333  plane waves:     394
 k-point    93 :   0.3333 0.5000 0.3333  plane waves:     394
 k-point    94 :   0.1667-0.3333-0.0000  plane waves:     394
 k-point    95 :  -0.1667 0.3333 0.0000  plane waves:     394
 k-point    96 :  -0.5000-0.1667-0.1667  plane waves:     394
 k-point    97 :   0.5000 0.1667 0.1667  plane waves:     394
 k-point    98 :  -0.3333-0.3333-0.5000  plane waves:     394
 k-point    99 :   0.3333 0.3333 0.5000  plane waves:     394
 k-point   100 :  -0.0000 0.1667-0.3333  plane waves:     394
 k-point   101 :   0.0000-0.1667 0.3333  plane waves:     394
 k-point   102 :  -0.1667-0.5000-0.1667  plane waves:     394
 k-point   103 :   0.1667 0.5000 0.1667  plane waves:     394
 k-point   104 :  -0.5000-0.3333-0.3333  plane waves:     394
 k-point   105 :   0.5000 0.3333 0.3333  plane waves:     394
 k-point   106 :  -0.3333-0.0000 0.1667  plane waves:     394
 k-point   107 :   0.3333 0.0000-0.1667  plane waves:     394
 k-point   108 :   0.1667-0.1667-0.0000  plane waves:     389
 k-point   109 :   0.0000-0.1667 0.1667  plane waves:     389
 k-point   110 :  -0.0000 0.1667-0.1667  plane waves:     389
 k-point   111 :   0.1667 0.0000-0.1667  plane waves:     389
 k-point   112 :  -0.1667-0.0000 0.1667  plane waves:     389
 k-point   113 :   0.1667 0.1667 0.3333  plane waves:     389
 k-point   114 :  -0.1667-0.1667-0.3333  plane waves:     389
 k-point   115 :  -0.1667-0.3333-0.1667  plane waves:     389
 k-point   116 :   0.1667 0.3333 0.1667  plane waves:     389
 k-point   117 :  -0.3333-0.1667-0.1667  plane waves:     389
 k-point   118 :   0.3333 0.1667 0.1667  plane waves:     389
 k-point   119 :  -0.3333-0.3333 0.0000  plane waves:     387
 k-point   120 :   0.0000 0.3333 0.3333  plane waves:     387
 k-point   121 :   0.0000-0.3333-0.3333  plane waves:     387
 k-point   122 :   0.3333 0.0000 0.3333  plane waves:     387
 k-point   123 :  -0.3333-0.0000-0.3333  plane waves:     387
 k-point   124 :  -0.5000-0.3333-0.0000  plane waves:     402
 k-point   125 :   0.0000 0.5000 0.3333  plane waves:     402
[...]
     11      17.0706      17.0964      -8.7275      25.8330      -2.7408       0.7391       0.0000      -0.4589
     12      18.6903      18.7224     -10.3980      29.1329      -3.5734       0.7200       0.0000      -0.7169
     13      20.5122      20.5401      -9.2163      29.7676      -2.5400       0.7138       0.0000      -0.7323
     14      21.1902      21.2187     -10.2693      31.4991      -2.9742       0.7188       0.0000      -1.0452
     15      21.9878      22.0149      -9.7794      31.8053      -2.6196       0.7122       0.0000      -1.0069
     16      23.4670      23.4901      -9.2168      32.7158      -2.1734       0.7222       0.0000      -1.1251

 k-point   9 :      -0.1667    0.1667    0.0000
  band No. old QP-enery  QP-energies   sigma(KS)   T+V_ion+V_H  V^pw_x(r,r')   Z            occupation Imag(sigma)

      1      -5.8973      -5.8845     -11.0975       5.2199     -17.3009       0.6507       2.0000       0.9094
      2       1.3591       1.3727     -11.6213      12.9995     -14.1659       0.7143       2.0000       0.0599
      3       2.6604       2.6737     -11.0381      13.7164     -12.7311       0.7403       2.0000       0.0258
      4       4.5678       4.5820     -11.8738      16.4603     -13.0342       0.7617       2.0000       0.0123
      5       8.9750       9.0016      -9.9196      18.9299      -5.5665       0.7513       0.0000      -0.0496
      6       9.4765       9.5042      -9.7908      19.3046      -5.2169       0.7420       0.0000      -0.0602
      7       9.6449       9.6710     -10.0542      19.7338      -5.7755       0.7509       0.0000      -0.0549
      8      11.5229      11.5527      -9.6703      21.2338      -4.5762       0.7352       0.0000      -0.1132
      9      11.9278      11.9549      -9.0442      21.0082      -4.0811       0.7468       0.0000      -0.1240
     10      15.3116      15.3425     -10.1979      25.5515      -4.1792       0.7367       0.0000      -0.3916
     11      16.0086      16.0333      -8.5418      24.5834      -2.6273       0.7466       0.0000      -0.3972
     12      17.0529      17.0775      -8.3951      25.4812      -2.4453       0.7420       0.0000      -0.4369
     13      18.9501      18.9762      -8.8838      27.8699      -2.3635       0.7274       0.0000      -0.6723
     14      21.2085      21.2336      -9.3357      30.5790      -2.6066       0.7212       0.0000      -0.8435
     15      21.6800      21.7069      -9.5674      31.2853      -2.3885       0.7089       0.0000      -1.0074
     16      24.3375      24.3610      -9.8191      34.1896      -2.2718       0.7108       0.0000      -1.3135

 k-point  10 :       0.3333    0.3333    0.0000
  band No. old QP-enery  QP-energies   sigma(KS)   T+V_ion+V_H  V^pw_x(r,r')   Z            occupation Imag(sigma)

      1      -4.9455      -4.9334     -11.1937       6.2664     -16.9672       0.6679       2.0000       0.7829
      2       0.0874       0.1009     -11.7407      11.8475     -15.0243       0.6965       2.0000       0.1341
      3       2.6240       2.6366     -11.3571      13.9982     -13.2448       0.7373       2.0000       0.0269
      4       2.6240       2.6366     -11.3571      13.9982     -13.2448       0.7373       2.0000       0.0269
      5       6.4296       6.4494      -9.0367      15.4917      -5.4379       0.7769       0.0000      -0.0348
      6       7.7244       7.7459      -8.7521      16.5043      -4.7119       0.7735       0.0000      -0.0412
      7      13.1673      13.2010     -10.4135      23.6275      -4.6961       0.7202       0.0000      -0.2342
      8      13.1673      13.2010     -10.4135      23.6275      -4.6961       0.7202       0.0000      -0.2342
      9      15.8049      15.8384     -10.6455      26.4967      -4.4536       0.7247       0.0000      -0.4096
     10      15.7893      15.8179      -9.6831      25.5108      -3.7086       0.7443       0.0000      -0.4251
     11      18.6356      18.6632      -8.9338      27.6077      -2.6000       0.7216       0.0000      -0.5430
     12      19.2393      19.2705     -10.0007      29.2840      -2.9536       0.7106       0.0000      -0.8174
     13      19.2393      19.2705     -10.0007      29.2840      -2.9536       0.7106       0.0000      -0.8174
     14      20.5550      20.5796      -8.2855      28.8744      -2.0009       0.7262       0.0000      -0.6378
     15      21.9561      21.9838     -10.0154      32.0105      -2.8342       0.7097       0.0000      -1.0836
     16      21.8556      21.8782      -8.5981      30.4848      -2.1208       0.7272       0.0000      -0.7929

 k-point  11 :       0.5000    0.3333    0.0000
  band No. old QP-enery  QP-energies   sigma(KS)   T+V_ion+V_H  V^pw_x(r,r')   Z            occupation Imag(sigma)

      1      -3.7741      -3.7620     -11.3536       7.5971     -16.6006       0.6827       2.0000       0.6133
      2      -1.4548      -1.4421     -11.5753      10.1391     -15.6762       0.6842       2.0000       0.2835
      3       1.3811       1.3931     -10.8074      12.2051     -13.0995       0.7207       2.0000       0.0524
      4       2.4776       2.4900     -11.3640      13.8585     -13.3247       0.7357       2.0000       0.0280
      5       6.7709       6.7911      -8.9180      15.7149      -5.1771       0.7760       0.0000      -0.0365
      6       8.4704       8.4933      -9.2396      17.7401      -5.0558       0.7611       0.0000      -0.0460
      7      13.3647      13.3976     -10.2881      23.6981      -4.5617       0.7256       0.0000      -0.2437
      8      13.3334      13.3657     -10.0368      23.4145      -4.2980       0.7280       0.0000      -0.2494
      9      16.4464      16.4791     -10.1593      26.6510      -3.6459       0.7216       0.0000      -0.5086
     10      16.5377      16.5679      -9.9965      26.5754      -3.6483       0.7328       0.0000      -0.5202
     11      18.2075      18.2374     -10.0833      28.3316      -3.4489       0.7331       0.0000      -0.6910
     12      18.7912      18.8252     -10.6071      29.4461      -3.7004       0.7096       0.0000      -0.6970
     13      20.1827      20.2075      -8.4952      28.7120      -2.1985       0.7280       0.0000      -0.6397
     14      21.5097      21.5381      -9.8186      31.3681      -2.7541       0.7148       0.0000      -0.9305
     15      21.7531      21.7808     -10.2034      31.9947      -2.8996       0.7224       0.0000      -1.1044
     16      24.3980      24.4213      -9.5647      33.9952      -2.2913       0.7154       0.0000      -1.2291

 k-point  12 :      -0.3333    0.3333    0.0000
  band No. old QP-enery  QP-energies   sigma(KS)   T+V_ion+V_H  V^pw_x(r,r')   Z            occupation Imag(sigma)

      1      -3.5807      -3.5687     -11.4720       7.9089     -16.6267       0.6841       2.0000       0.5863
      2      -1.6630      -1.6509     -11.4769       9.8314     -15.6713       0.6912       2.0000       0.3126
      3       0.5848       0.5963     -10.5291      11.1301     -13.2131       0.7075       2.0000       0.0850
      4       2.9394       2.9521     -11.4638      14.4204     -13.2344       0.7411       2.0000       0.0236
      5       7.3144       7.3357      -8.9926      16.3346      -5.1051       0.7733       0.0000      -0.0388
      6      11.5467      11.5744      -9.5254      21.1096      -4.5403       0.7384       0.0000      -0.1132
      7      12.3740      12.4072      -9.9651      22.3854      -4.3342       0.7171       0.0000      -0.1862
      8      12.9562      12.9887     -10.2672      23.2682      -4.6425       0.7255       0.0000      -0.2152
      9      13.2947      13.3279     -10.0454      23.3863      -4.1902       0.7193       0.0000      -0.2436
     10      13.4766      13.5053      -9.5101      23.0255      -4.1128       0.7408       0.0000      -0.2276
     11      19.8961      19.9215      -8.6766      28.6076      -2.3143       0.7282       0.0000      -0.6296
     12      20.3658      20.3894      -8.3079      28.7060      -2.0412       0.7311       0.0000      -0.6510
     13      21.5376      21.6898     -10.5354      32.2878      -3.0652       0.7089       0.0000      -1.0839
     14      21.5376      21.4475     -10.5090      31.9194      -3.0387       0.7089       0.0000      -1.0839
     15      22.4429      22.4729     -10.4489      32.9342      -2.9195       0.7064       0.0000      -1.1778
     16      23.4387      23.4675     -10.7239      34.2033      -3.1244       0.7052       0.0000      -1.3106

 k-point  13 :       0.5000    0.5000    0.0000
  band No. old QP-enery  QP-energies   sigma(KS)   T+V_ion+V_H  V^pw_x(r,r')   Z            occupation Imag(sigma)

      1      -2.6922      -2.6802     -11.4297       8.7550     -16.1671       0.6880       2.0000       0.4524
      2      -2.6922      -2.6802     -11.4297       8.7550     -16.1671       0.6880       2.0000       0.4524
      3       2.1661       2.1782     -11.3168      13.4996     -13.4133       0.7296       2.0000       0.0327
      4       2.1661       2.1782     -11.3168      13.4996     -13.4133       0.7296       2.0000       0.0327
      5       6.3920       6.4113      -8.8065      15.2232      -5.1403       0.7798       0.0000      -0.0357
      6       6.3920       6.4113      -8.8065      15.2232      -5.1403       0.7798       0.0000      -0.0357
      7      15.9900      16.0261     -10.5180      26.5591      -3.7257       0.7051       0.0000      -0.5148
      8      15.9900      16.0261     -10.5180      26.5591      -3.7257       0.7051       0.0000      -0.5148
      9      16.8333      16.8646     -10.2485      27.1244      -3.9950       0.7336       0.0000      -0.5350
     10      16.8333      16.8646     -10.2485      27.1244      -3.9950       0.7336       0.0000      -0.5350
     11      18.3962      18.4234      -9.8071      28.2401      -3.2738       0.7399       0.0000      -0.6915
     12      18.3962      18.4234      -9.8071      28.2401      -3.2738       0.7399       0.0000      -0.6915
     13      18.8914      18.9246     -10.3522      29.2905      -3.5271       0.7069       0.0000      -0.6600
     14      18.8914      18.9246     -10.3522      29.2905      -3.5271       0.7069       0.0000      -0.6600
     15      24.3617      24.3841      -8.9882      33.3812      -2.0031       0.7159       0.0000      -1.0626
     16      24.3617      24.3841      -8.9882      33.3812      -2.0031       0.7159       0.0000      -1.0626

 k-point  14 :       0.5000    0.3333    0.1667
  band No. old QP-enery  QP-energies   sigma(KS)   T+V_ion+V_H  V^pw_x(r,r')   Z            occupation Imag(sigma)

      1      -4.5597      -4.5472     -11.2729       6.7317     -16.8742       0.6723       2.0000       0.7263
      2      -0.5484      -0.5355     -11.6260      11.0962     -15.2321       0.6906       2.0000       0.1843
      3       1.4508       1.4629     -10.8072      12.2748     -13.0655       0.7224       2.0000       0.0510
      4       2.7649       2.7777     -11.2220      14.0043     -12.9424       0.7413       2.0000       0.0247
      5       8.6445       8.6687      -9.5645      18.2409      -5.3746       0.7577       0.0000      -0.0465
      6       9.4698       9.4945      -9.0813      18.5837      -4.6468       0.7571       0.0000      -0.0562
      7      10.1330      10.1616      -9.8770      20.0486      -5.1761       0.7408       0.0000      -0.0710
      8      12.9521      12.9848     -10.2966      23.2938      -4.6864       0.7245       0.0000      -0.2146
      9      14.8831      14.9136      -9.9080      24.8325      -3.9944       0.7360       0.0000      -0.3501
     10      15.6973      15.7288      -9.8813      25.6222      -3.5654       0.7225       0.0000      -0.4423
     11      18.9452      18.9780     -10.5041      29.4953      -3.6005       0.7119       0.0000      -0.7408
     12      18.8119      18.8387      -8.8639      27.7126      -2.4720       0.7267       0.0000      -0.6047
     13      19.4284      19.4535      -8.6241      28.0868      -2.3800       0.7302       0.0000      -0.6058
     14      20.6361      20.6655      -9.9775      30.6547      -2.9533       0.7164       0.0000      -0.8869
     15      22.1510      22.1748      -9.1251      31.3089      -2.2389       0.7242       0.0000      -0.9469
     16      23.5348      23.5613      -9.9873      33.5595      -2.5627       0.7090       0.0000      -1.2631

 k-point  15 :      -0.3333    0.3333    0.1667
  band No. old QP-enery  QP-energies   sigma(KS)   T+V_ion+V_H  V^pw_x(r,r')   Z            occupation Imag(sigma)

      1      -3.5701      -3.5579     -11.4816       7.9293     -16.6343       0.6862       2.0000       0.5858
      2      -1.7387      -1.7267     -11.3967       9.6753     -15.6152       0.6903       2.0000       0.3202
      3       1.0006       1.0125     -10.7346      11.7518     -13.2271       0.7148       2.0000       0.0673
      4       2.2768       2.2892     -11.0574      13.3511     -12.9636       0.7344       2.0000       0.0313
      5       9.1024       9.1266      -9.2585      18.3929      -4.9852       0.7581       0.0000      -0.0498
      6       9.4171       9.4436      -9.7057      19.1582      -5.2178       0.7489       0.0000      -0.0570
      7      11.8929      11.9223      -9.6119      21.5450      -4.4193       0.7317       0.0000      -0.1355
      8      12.3753      12.4069      -9.8254      22.2442      -4.2702       0.7253       0.0000      -0.1803
      9      13.4411      13.4733     -10.1954      23.6806      -4.4783       0.7289       0.0000      -0.2507
     10      16.9440      16.9765     -10.1619      27.1510      -3.6048       0.7203       0.0000      -0.5625
     11      17.7971      17.8278     -10.0327      27.8721      -3.4778       0.7257       0.0000      -0.6097
     12      18.9878      19.0130      -8.4292      27.4515      -2.2793       0.7295       0.0000      -0.5490
     13      22.0556      22.0867     -10.5306      32.6304      -2.9573       0.7027       0.0000      -1.1212
     14      22.6438      22.6731     -10.3617      33.0469      -2.8883       0.7075       0.0000      -1.1625
     15      22.7669      22.7931     -10.0730      32.8760      -2.8376       0.7238       0.0000      -1.1298
     16      23.5355      23.5599      -9.4429      33.0126      -2.3290       0.7157       0.0000      -1.1422

 k-point  16 :      -0.3333    0.5000    0.1667
  band No. old QP-enery  QP-energies   sigma(KS)   T+V_ion+V_H  V^pw_x(r,r')   Z            occupation Imag(sigma)

      1      -2.5754      -2.5636     -11.5192       8.9608     -16.1978       0.6932       2.0000       0.4394
      2      -2.5754      -2.5636     -11.5192       8.9608     -16.1978       0.6932       2.0000       0.4394
      3       1.3649       1.3767     -10.7907      12.1721     -13.0863       0.7198       2.0000       0.0521
      4       1.3649       1.3767     -10.7907      12.1721     -13.0863       0.7198       2.0000       0.0521
      5       8.5059       8.5291      -9.3087      17.8451      -5.1319       0.7606       0.0000      -0.0457
      6       8.5059       8.5291      -9.3087      17.8451      -5.1319       0.7606       0.0000      -0.0457
      7      12.6146      12.6461      -9.8810      22.5390      -4.3622       0.7269       0.0000      -0.1896
      8      12.6146      12.6461      -9.8810      22.5390      -4.3622       0.7269       0.0000      -0.1896
      9      16.4435      16.4780     -10.4219      26.9135      -3.8921       0.7168       0.0000      -0.5261
     10      16.4435      16.4780     -10.4219      26.9135      -3.8921       0.7168       0.0000      -0.5261
     11      18.8164      18.8471     -10.1302      28.9891      -3.3928       0.7229       0.0000      -0.7084
     12      18.8164      18.8471     -10.1302      28.9891      -3.3928       0.7229       0.0000      -0.7084
     13      22.1889      22.2173      -9.8277      32.0565      -2.6754       0.7123       0.0000      -1.0188
     14      22.1889      22.2173      -9.8277      32.0565      -2.6754       0.7123       0.0000      -1.0188
     15      22.8323      22.8579      -9.4660      32.3341      -2.4076       0.7162       0.0000      -1.0354
     16      22.8323      22.8579      -9.4660      32.3341      -2.4076       0.7162       0.0000      -1.0354


--------------------------------------------------------------------------------------------------------


  QP_SHIFT:  cpu time      4.6177: real time      3.4792
    GWLOOP:  cpu time    805.2710: real time    578.5711
  LATTYP: Found a face centered cubic cell.
 ALAT       =     5.4300000000
  
  Lattice vectors:
  
 A1 = (   2.7150000000,   2.7150000000,   0.0000000000)
 A2 = (   0.0000000000,   2.7150000000,   2.7150000000)
 A3 = (   2.7150000000,   0.0000000000,   2.7150000000)


Analysis of symmetry for initial positions (statically):
=====================================================================
 Subroutine PRICEL returns:
 Original cell was already a primitive cell.
 

 Routine SETGRP: Setting up the symmetry group for a 
 face centered cubic supercell.


 Subroutine GETGRP returns: Found 48 space group operations
 (whereof 24 operations were pure point group operations)
 out of a pool of 48 trial point group operations.


The static configuration has the point symmetry T_d .
 The point group associated with its full space group is O_h .


Analysis of symmetry for dynamics (positions and initial velocities):
=====================================================================
 Subroutine PRICEL returns:
 Original cell was already a primitive cell.
 

 Routine SETGRP: Setting up the symmetry group for a 
 face centered cubic supercell.


 Subroutine GETGRP returns: Found 48 space group operations
 (whereof 24 operations were pure point group operations)
 out of a pool of 48 trial point group operations.


The dynamic configuration has the point symmetry T_d .
 The point group associated with its full space group is O_h .


 Subroutine INISYM returns: Found 48 space group operations
 (whereof 24 operations are pure point group operations),
 and found     1 'primitive' translations

 writing wavefunctions
    --------------------------------------------
   GWTOTAL:  cpu time   2519.4200: real time   1740.9241
    4ORBIT:  cpu time      0.0000: real time      0.0000

 total amount of memory used by VASP MPI-rank0    43267. kBytes
=======================================================================

   base                                    :      30000. kBytes
   nonl-proj                               :       1747. kBytes
   fftplans                                :        595. kBytes
   grid                                    :       1120. kBytes
   one-center                              :         31. kBytes
   HF                                      :        129. kBytes
   nonlr-proj                              :       1543. kBytes
   wavefun                                 :       3211. kBytes
   fock_wrk                                :       4498. kBytes
   cder                                    :        393. kBytes
   2eintegral                              :          0. kBytes
   response                                :          0. kBytes

  
  
 General timing and accounting informations for this job:
 ========================================================
  
                  Total CPU time used (sec):     2520.061
                            User time (sec):     2305.714
                          System time (sec):      214.347
                         Elapsed time (sec):     1741.482
  
                   Maximum memory used (kb):   549208064.
                   Average memory used (kb):          N/A
  
                          Minor page faults:      2073150
                          Major page faults:          752
                 Voluntary context switches:          404
