<?xml version="1.0" encoding="ISO-8859-1"?>
<modeling>
 <generator>
  <i name="program" type="string">vasp </i>
  <i name="version" type="string">6.5.0  </i>
  <i name="subversion" type="string">16Dec24 (build Feb 18 2025 08:57:40) complex                          parallel </i>
  <i name="platform" type="string">LinuxGNU </i>
  <i name="date" type="string">2025 05 31 </i>
  <i name="time" type="string">17:22:59 </i>
 </generator>
 <incar>
  <i type="string" name="SYSTEM">cd Si GW0</i>
  <i type="string" name="ALGO">EVGW0</i>
  <i name="ENCUT">    400.00000000</i>
  <i type="int" name="NBANDS">    64</i>
  <i type="int" name="ISMEAR">     0</i>
  <i name="SIGMA">      0.05000000</i>
  <i type="int" name="NBANDSGW">    16</i>
  <i type="int" name="NELMGW">     3</i>
 </incar>
 <primitive_cell>
  <structure name="primitive_cell" >
   <crystal>
    <varray name="basis" >
     <v>       2.71500000       2.71500000       0.00000000 </v>
     <v>       0.00000000       2.71500000       2.71500000 </v>
     <v>       2.71500000       0.00000000       2.71500000 </v>
    </varray>
    <i name="volume">     40.02575175 </i>
    <varray name="rec_basis" >
     <v>       0.18416206       0.18416206      -0.18416206 </v>
     <v>      -0.18416206       0.18416206       0.18416206 </v>
     <v>       0.18416206      -0.18416206       0.18416206 </v>
    </varray>
   </crystal>
   <varray name="positions" >
    <v>       0.00000000       0.00000000       0.00000000 </v>
    <v>       0.25000000       0.25000000       0.25000000 </v>
   </varray>
  </structure>
  <varray name="primitive_index" >
   <v type="int" >        1 </v>
   <v type="int" >        2 </v>
  </varray>
 </primitive_cell>
 <kpoints>
  <generation param="Gamma">
   <v type="int" name="divisions">       6        6        6 </v>
   <v name="usershift">      0.00000000       0.00000000       0.00000000 </v>
   <v name="genvec1">      0.16666667       0.00000000       0.00000000 </v>
   <v name="genvec2">      0.00000000       0.16666667      -0.00000000 </v>
   <v name="genvec3">     -0.00000000      -0.00000000       0.16666667 </v>
   <v name="shift">      0.00000000       0.00000000       0.00000000 </v>
  </generation>
  <varray name="kpointlist" >
   <v>       0.00000000       0.00000000       0.00000000 </v>
   <v>       0.16666667       0.00000000       0.00000000 </v>
   <v>       0.33333333       0.00000000       0.00000000 </v>
   <v>       0.50000000       0.00000000       0.00000000 </v>
   <v>       0.16666667       0.16666667       0.00000000 </v>
   <v>       0.33333333       0.16666667       0.00000000 </v>
   <v>       0.50000000       0.16666667       0.00000000 </v>
   <v>      -0.33333333       0.16666667       0.00000000 </v>
   <v>      -0.16666667       0.16666667       0.00000000 </v>
   <v>       0.33333333       0.33333333       0.00000000 </v>
   <v>       0.50000000       0.33333333       0.00000000 </v>
   <v>      -0.33333333       0.33333333       0.00000000 </v>
   <v>       0.50000000       0.50000000       0.00000000 </v>
   <v>       0.50000000       0.33333333       0.16666667 </v>
   <v>      -0.33333333       0.33333333       0.16666667 </v>
   <v>      -0.33333333       0.50000000       0.16666667 </v>
  </varray>
  <varray name="weights" >
   <v>       0.00462963 </v>
   <v>       0.03703704 </v>
   <v>       0.03703704 </v>
   <v>       0.01851852 </v>
   <v>       0.02777778 </v>
   <v>       0.11111111 </v>
   <v>       0.11111111 </v>
   <v>       0.11111111 </v>
   <v>       0.05555556 </v>
   <v>       0.02777778 </v>
   <v>       0.11111111 </v>
   <v>       0.05555556 </v>
   <v>       0.01388889 </v>
   <v>       0.11111111 </v>
   <v>       0.11111111 </v>
   <v>       0.05555556 </v>
  </varray>
 </kpoints>
 <parameters>
  <separator name="general" >
   <i type="string" name="SYSTEM">cd Si GW0</i>
   <i type="logical" name="LCOMPAT"> F  </i>
  </separator>
  <separator name="electronic" >
   <i type="string" name="PREC">normal</i>
   <i name="ENMAX">    400.00000000</i>
   <i name="ENAUG">    412.95200000</i>
   <i name="EDIFF">      0.00010000</i>
   <i type="int" name="IALGO">    38</i>
   <i type="int" name="IWAVPR">    10</i>
   <i type="int" name="NBANDS">    64</i>
   <i type="int" name="NBANDSLOW">    -1</i>
   <i type="int" name="NBANDSHIGH">    -1</i>
   <i name="NELECT">      8.00000000</i>
   <i type="int" name="TURBO">     0</i>
   <i type="int" name="IRESTART">     0</i>
   <i type="int" name="NREBOOT">     0</i>
   <i type="int" name="NMIN">     0</i>
   <i name="EREF">      0.00000000</i>
   <separator name="electronic smearing" >
    <i type="int" name="ISMEAR">     0</i>
    <i name="SIGMA">      0.05000000</i>
    <i name="KSPACING">      0.50000000</i>
    <i type="logical" name="KGAMMA"> T  </i>
    <i type="logical" name="KBLOWUP"> T  </i>
   </separator>
   <separator name="electronic projectors" >
    <i type="logical" name="LREAL"> F  </i>
    <v name="ROPT">      0.00000000</v>
    <i type="int" name="LMAXPAW">  -100</i>
    <i type="int" name="LMAXMIX">     2</i>
    <i type="logical" name="NLSPLINE"> F  </i>
   </separator>
   <separator name="electronic startup" >
    <i type="int" name="ISTART">     1</i>
    <i type="int" name="ICHARG">     0</i>
    <i type="int" name="INIWAV">     1</i>
   </separator>
   <separator name="electronic spin" >
    <i type="int" name="ISPIN">     1</i>
    <i type="logical" name="LNONCOLLINEAR"> F  </i>
    <v name="MAGMOM">      1.00000000      1.00000000</v>
    <i name="NUPDOWN">     -1.00000000</i>
    <i type="logical" name="LSORBIT"> F  </i>
    <v name="SAXIS">      0.00000000      0.00000000      1.00000000</v>
    <i type="logical" name="LSPIRAL"> F  </i>
    <v name="QSPIRAL">      0.00000000      0.00000000      0.00000000</v>
    <i type="logical" name="LZEROZ"> F  </i>
   </separator>
   <separator name="electronic exchange-correlation" >
    <i type="logical" name="LASPH"> F  </i>
   </separator>
   <separator name="electronic convergence" >
    <i type="int" name="NELM">    60</i>
    <i type="int" name="NELMDL">     0</i>
    <i type="int" name="NELMIN">     2</i>
    <i name="ENINI">    400.00000000</i>
    <separator name="electronic convergence detail" >
     <i type="logical" name="LDIAG"> T  </i>
     <i type="logical" name="LSUBROT"> F  </i>
     <i name="WEIMIN">      0.00000000</i>
     <i name="EBREAK">      0.00000039</i>
     <i name="DEPER">      0.30000000</i>
     <i type="int" name="NRMM">     4</i>
     <i name="TIME">      0.40000000</i>
    </separator>
   </separator>
   <separator name="electronic mixer" >
    <i name="AMIX">      0.40000000</i>
    <i name="BMIX">      1.00000000</i>
    <i name="AMIN">      0.10000000</i>
    <i name="AMIX_MAG">      1.60000000</i>
    <i name="BMIX_MAG">      1.00000000</i>
    <separator name="electronic mixer details" >
     <i type="int" name="IMIX">     4</i>
     <i type="logical" name="MIXFIRST"> F  </i>
     <i type="int" name="MAXMIX">   -45</i>
     <i name="WC">    100.00000000</i>
     <i type="int" name="INIMIX">     1</i>
     <i type="int" name="MIXPRE">     1</i>
     <i type="int" name="MREMOVE">     5</i>
    </separator>
   </separator>
   <separator name="electronic dipolcorrection" >
    <i type="logical" name="LDIPOL"> F  </i>
    <i type="logical" name="LMONO"> F  </i>
    <i type="int" name="IDIPOL">     0</i>
    <i name="EPSILON">      1.00000000</i>
    <v name="DIPOL">   -100.00000000   -100.00000000   -100.00000000</v>
    <i name="EFIELD">      0.00000000</i>
    <i type="logical" name="LVACPOTAV"> F  </i>
   </separator>
  </separator>
  <separator name="grids" >
   <i type="int" name="NGX">    20</i>
   <i type="int" name="NGY">    20</i>
   <i type="int" name="NGZ">    20</i>
   <i type="int" name="NGXF">    40</i>
   <i type="int" name="NGYF">    40</i>
   <i type="int" name="NGZF">    40</i>
   <i type="logical" name="ADDGRID"> F  </i>
  </separator>
  <separator name="ionic" >
   <i type="int" name="NSW">     0</i>
   <i type="int" name="IBRION">    -1</i>
   <i type="int" name="MDALGO">     0</i>
   <i type="int" name="ISIF">     0</i>
   <i name="PSTRESS">      0.00000000</i>
   <i name="EDIFFG">      0.00100000</i>
   <i type="int" name="NFREE">     0</i>
   <i name="POTIM">      0.50000000</i>
   <i name="SMASS">     -3.00000000</i>
   <i name="SCALEE">      1.00000000</i>
  </separator>
  <separator name="ionic md" >
   <i name="TEBEG">      0.00010000</i>
   <i name="TEEND">      0.00010000</i>
   <i type="int" name="NBLOCK">     1</i>
   <i type="int" name="KBLOCK">     1</i>
   <i type="int" name="NPACO">   256</i>
   <i name="APACO">     10.00000000</i>
  </separator>
  <separator name="symmetry" >
   <i type="int" name="ISYM">     3</i>
   <i name="SYMPREC">      0.00001000</i>
  </separator>
  <separator name="dos" >
   <i type="int" name="LORBIT">     0</i>
   <v name="RWIGS">     -1.00000000</v>
   <i type="int" name="NEDOS">   301</i>
   <i name="EMIN">     10.00000000</i>
   <i name="EMAX">    -10.00000000</i>
   <i name="EFERMI">      0.00000000</i>
  </separator>
  <separator name="writing" >
   <i type="int" name="NWRITE">     2</i>
   <i type="logical" name="LWAVE"> T  </i>
   <i type="logical" name="LDOWNSAMPLE"> F  </i>
   <i type="logical" name="LCHARG"> T  </i>
   <i type="logical" name="LPARD"> F  </i>
   <i type="logical" name="LVTOT"> F  </i>
   <i type="logical" name="LVHAR"> F  </i>
   <i type="logical" name="LELF"> F  </i>
   <i type="logical" name="LOPTICS"> F  </i>
   <v name="STM">      0.00000000      0.00000000      0.00000000      0.00000000      0.00000000      0.00000000      0.00000000</v>
  </separator>
  <separator name="performance" >
   <i type="int" name="NPAR">     4</i>
   <i type="int" name="NSIM">     4</i>
   <i type="int" name="NBLK">    -1</i>
   <i type="logical" name="LPLANE"> T  </i>
   <i type="logical" name="LSCALAPACK"> T  </i>
   <i type="logical" name="LSCAAWARE"> F  </i>
   <i type="logical" name="LSCALU"> F  </i>
   <i type="logical" name="LASYNC"> F  </i>
   <i type="logical" name="LORBITALREAL"> F  </i>
  </separator>
  <separator name="miscellaneous" >
   <i type="int" name="IDIOT">     3</i>
   <i type="int" name="PHON_NSTRUCT">    -1</i>
   <i type="logical" name="LMUSIC"> F  </i>
   <v name="POMASS">     28.08500000</v>
   <v name="DARWINR">      0.00000000</v>
   <v name="DARWINV">      1.00000000</v>
   <i type="logical" name="LCORR"> T  </i>
  </separator>
  <i type="logical" name="GGA_COMPAT"> T  </i>
  <i type="logical" name="LBERRY"> F  </i>
  <i type="int" name="ICORELEVEL">     0</i>
  <i type="logical" name="LDAU"> F  </i>
  <i type="int" name="I_CONSTRAINED_M">     0</i>
  <separator name="electronic exchange-correlation" >
   <i type="string" name="GGA    ">PE</i>
   <i type="string" name="XC_C">1</i>
   <i type="int" name="VOSKOWN">     0</i>
   <i type="logical" name="LHFCALC"> T  </i>
   <i type="string" name="PRECFOCK">normal</i>
   <i type="logical" name="LSYMGRAD"> F  </i>
   <i type="logical" name="LHFONE"> F  </i>
   <i type="logical" name="LRHFCALC"> F  </i>
   <i type="logical" name="LTHOMAS"> F  </i>
   <i type="logical" name="LMODELHF"> F  </i>
   <i type="logical" name="LFOCKACE"> T  </i>
   <i name="ENCUT4O">     -1.00000000</i>
   <i type="int" name="EXXOEP">     0</i>
   <i type="int" name="FOURORBIT">     0</i>
   <i name="AEXX">      1.00000000</i>
   <i name="HFALPHA">     -1.00000000</i>
   <i name="MCALPHA">      0.00000000</i>
   <i name="ALDAX">      0.00000000</i>
   <i name="AGGAX">      0.00000000</i>
   <i name="AMGGAX">      0.00000000</i>
   <i name="ALDAC">      0.00000000</i>
   <i name="AGGAC">      0.00000000</i>
   <i name="AMGGAC">      0.00000000</i>
   <i type="int" name="NKREDX">     1</i>
   <i type="int" name="NKREDY">     1</i>
   <i type="int" name="NKREDZ">     1</i>
   <i type="logical" name="SHIFTRED"> F  </i>
   <i type="logical" name="ODDONLY"> F  </i>
   <i type="logical" name="EVENONLY"> F  </i>
   <i type="int" name="LMAXFOCK">     4</i>
   <i type="int" name="NMAXFOCKAE">     1</i>
   <i type="logical" name="LFOCKAEDFT"> F  </i>
   <i name="HFSCREEN">      0.00000000</i>
   <i name="HFSCREENC">      0.00000000</i>
   <i type="int" name="NBANDSGWLOW">     1</i>
  </separator>
  <separator name="vdW DFT" >
   <i type="logical" name="LUSE_VDW"> F  </i>
   <i type="int" name="IVDW_NL">    -1</i>
   <i type="logical" name="LSPIN_VDW"> F  </i>
   <i name="ZAB_VDW">     -0.84910000</i>
   <i name="GAMMA_VDW">      1.39626340</i>
   <i name="ALPHA_VDW">      0.00000000</i>
   <i name="PARAM1">      0.12340000</i>
   <i name="PARAM2">      1.00000000</i>
   <i name="BPARAM">      6.30000000</i>
   <i name="CPARAM">      0.00930000</i>
  </separator>
  <separator name="model GW" >
   <i type="int" name="MODEL_GW">     0</i>
   <i name="MODEL_EPS0">     12.00772552</i>
   <i name="MODEL_ALPHA">      1.00000000</i>
  </separator>
  <separator name="linear response parameters" >
   <i type="logical" name="LEPSILON"> F  </i>
   <i type="logical" name="LRPA"> F  </i>
   <i type="logical" name="LNABLA"> F  </i>
   <i type="logical" name="LVEL"> F  </i>
   <i name="CSHIFT">      0.10000000</i>
   <i name="OMEGAMAX">     -1.00000000</i>
   <i name="DEG_THRESHOLD">      0.00200000</i>
   <i name="RTIME">     -0.10000000</i>
   <i name="WPLASMAI">      0.00000000</i>
   <v name="DFIELD">      0.00000000      0.00000000      0.00000000</v>
   <v name="WPLASMA">      0.00000000      0.00000000      0.00000000      0.00000000      0.00000000      0.00000000      0.00000000      0.00000000      0.00000000</v>
  </separator>
  <separator name="orbital magnetization" >
   <i type="logical" name="NUCIND"> F  </i>
   <v name="MAGPOS">      0.00000000      0.00000000      0.00000000</v>
   <i type="logical" name="LNICSALL"> T  </i>
   <i type="logical" name="ORBITALMAG"> F  </i>
   <i type="logical" name="LMAGBLOCH"> F  </i>
   <i type="logical" name="LCHIMAG"> F  </i>
   <i type="logical" name="LGAUGE"> T  </i>
   <i type="int" name="MAGATOM">     0</i>
   <v name="MAGDIPOL">      0.00000000      0.00000000      0.00000000</v>
   <v name="AVECCONST">      0.00000000      0.00000000      0.00000000</v>
  </separator>
  <separator name="response functions" >
   <i type="logical" name="LALL_IN_ONE"> F  </i>
   <i type="int" name="IALL_IN_ONE">    -1</i>
   <i type="int" name="NBANDS_WAVE">    -1</i>
   <i type="logical" name="LFINITE_TEMPERATURE"> F  </i>
   <i type="logical" name="LADDER"> F  </i>
   <i type="logical" name="LRPAFORCE"> F  </i>
   <i type="logical" name="LFXC"> F  </i>
   <i type="logical" name="LHARTREE"> T  </i>
   <i type="int" name="IBSE">     2</i>
   <v type="int" name="KPOINT">    -1     0     0     0</v>
   <i type="logical" name="LTCTC"> F  </i>
   <i type="logical" name="LTCTE"> F  </i>
   <i type="logical" name="LTETE"> F  </i>
   <i type="logical" name="LTRIPLET"> F  </i>
   <i type="logical" name="LFXCEPS"> F  </i>
   <i type="logical" name="LFXHEG"> F  </i>
   <i type="int" name="NATURALO">     2</i>
   <i type="logical" name="LHOLEGF"> F  </i>
   <i type="logical" name="L2ORDER"> F  </i>
   <i type="logical" name="LDMP1"> F  </i>
   <i type="logical" name="LMP2LT"> F  </i>
   <i type="logical" name="LSMP2LT"> F  </i>
   <i type="logical" name="LGWLF"> F  </i>
   <i name="ENCUTGW">    266.66666667</i>
   <i name="ENCUTGWSOFT">    213.33333651</i>
   <i name="ENCUTLF">     -1.00000000</i>
   <i type="logical" name="ESF_SPLINES"> F  </i>
   <i name="ESF_CONV">      0.01000000</i>
   <i type="int" name="ESF_NINTER">    15</i>
   <i type="int" name="LMAXMP2">    -1</i>
   <i name="SCISSOR">      0.00000000</i>
   <i type="int" name="NOMEGA">   100</i>
   <i type="int" name="NOMEGAR">   100</i>
   <i type="int" name="NBANDSGW">    16</i>
   <i type="int" name="NBANDSO">    -1</i>
   <i type="int" name="NBANDSV">    -1</i>
   <i type="int" name="NELMGW">     3</i>
   <i type="int" name="NELMHF">     1</i>
   <i type="int" name="DIM">     3</i>
   <i type="int" name="IESPILON">     4</i>
   <i type="int" name="ANTIRES">     0</i>
   <i name="OMEGAMAX">    -30.00000000</i>
   <i name="OMEGAMIN">    -30.00000000</i>
   <i name="OMEGATL">   -200.00000000</i>
   <i type="int" name="OMEGAGRID">     0</i>
   <i name="CSHIFT">     -0.10000000</i>
   <i type="logical" name="LSELFENERGY"> F  </i>
   <i type="logical" name="LSPECTRAL"> T  </i>
   <i type="logical" name="LSPECTRALGW"> F  </i>
   <i type="logical" name="LSINGLES"> F  </i>
   <i type="logical" name="LFERMIGW"> F  </i>
   <i type="logical" name="ODDONLYGW"> F  </i>
   <i type="logical" name="EVENONLYGW"> F  </i>
   <i type="int" name="NKREDLFX">     1</i>
   <i type="int" name="NKREDLFY">     1</i>
   <i type="int" name="NKREDLFZ">     1</i>
   <i type="int" name="MAXMEM">  2800</i>
   <i type="int" name="TELESCOPE">     0</i>
   <i type="int" name="NTAUPAR">    -1</i>
   <i type="int" name="NOMEGAPAR">    -1</i>
   <i name="DAMP_NEWTON">      0.80000001</i>
   <i name="LAMBDA">      1.00000000</i>
  </separator>
  <separator name="External order field" >
   <i name="OFIELD_KAPPA">      0.00000000</i>
   <v name="OFIELD_K">      0.00000000      0.00000000      0.00000000</v>
   <i name="OFIELD_Q6_NEAR">      0.00000000</i>
   <i name="OFIELD_Q6_FAR">      0.00000000</i>
   <i name="OFIELD_A">      0.00000000</i>
  </separator>
  <separator name="optional k-points parameters" >
   <i type="int" name="KPOINTS_OPT_MODE">     1</i>
   <i type="logical" name="LKPOINTS_OPT"> F  </i>
  </separator>
 </parameters>
 <atominfo>
  <atoms>       2 </atoms>
  <types>       1 </types>
  <array name="atoms" >
   <dimension dim="1">ion</dimension>
   <field type="string">element</field>
   <field type="int">atomtype</field>
   <set>
    <rc><c>Si</c><c>   1</c></rc>
    <rc><c>Si</c><c>   1</c></rc>
   </set>
  </array>
  <array name="atomtypes" >
   <dimension dim="1">type</dimension>
   <field type="int">atomspertype</field>
   <field type="string">element</field>
   <field>mass</field>
   <field>valence</field>
   <field type="string">pseudopotential</field>
   <set>
    <rc><c>   2</c><c>Si</c><c>     28.08500000</c><c>      4.00000000</c><c>  PAW_PBE Si_GW 04May2012               </c></rc>
   </set>
  </array>
 </atominfo>
 <structure name="initialpos" >
  <crystal>
   <varray name="basis" >
    <v>       2.71500000       2.71500000       0.00000000 </v>
    <v>       0.00000000       2.71500000       2.71500000 </v>
    <v>       2.71500000       0.00000000       2.71500000 </v>
   </varray>
   <i name="volume">     40.02575175 </i>
   <varray name="rec_basis" >
    <v>       0.18416206       0.18416206      -0.18416206 </v>
    <v>      -0.18416206       0.18416206       0.18416206 </v>
    <v>       0.18416206      -0.18416206       0.18416206 </v>
   </varray>
  </crystal>
  <varray name="positions" >
   <v>       0.00000000       0.00000000       0.00000000 </v>
   <v>       0.25000000       0.25000000       0.25000000 </v>
  </varray>
 </structure>
 <calculation>
  <kpoints>
   <generation param="Gamma">
    <v type="int" name="divisions">       6        6        6 </v>
    <v name="usershift">      0.00000000       0.00000000       0.00000000 </v>
    <v name="genvec1">      0.16666667       0.00000000       0.00000000 </v>
    <v name="genvec2">      0.00000000       0.16666667      -0.00000000 </v>
    <v name="genvec3">     -0.00000000      -0.00000000       0.16666667 </v>
    <v name="shift">      0.00000000       0.00000000       0.00000000 </v>
   </generation>
   <varray name="kpointlist" >
    <v>       0.00000000       0.00000000       0.00000000 </v>
    <v>       0.16666667       0.00000000       0.00000000 </v>
    <v>      -0.16666667       0.00000000       0.00000000 </v>
    <v>       0.00000000       0.16666667       0.00000000 </v>
    <v>       0.00000000      -0.16666667       0.00000000 </v>
    <v>       0.00000000       0.00000000       0.16666667 </v>
    <v>       0.00000000       0.00000000      -0.16666667 </v>
    <v>       0.16666667       0.16666667       0.16666667 </v>
    <v>      -0.16666667      -0.16666667      -0.16666667 </v>
    <v>       0.33333333       0.00000000       0.00000000 </v>
    <v>      -0.33333333       0.00000000       0.00000000 </v>
    <v>       0.00000000       0.33333333       0.00000000 </v>
    <v>       0.00000000      -0.33333333       0.00000000 </v>
    <v>       0.00000000       0.00000000       0.33333333 </v>
    <v>       0.00000000       0.00000000      -0.33333333 </v>
    <v>       0.33333333       0.33333333       0.33333333 </v>
    <v>      -0.33333333      -0.33333333      -0.33333333 </v>
    <v>       0.50000000       0.00000000       0.00000000 </v>
    <v>       0.00000000       0.50000000       0.00000000 </v>
    <v>       0.00000000       0.00000000       0.50000000 </v>
    <v>       0.50000000       0.50000000       0.50000000 </v>
    <v>       0.16666667       0.16666667       0.00000000 </v>
    <v>      -0.16666667      -0.16666667       0.00000000 </v>
    <v>       0.00000000       0.16666667       0.16666667 </v>
    <v>       0.00000000      -0.16666667      -0.16666667 </v>
    <v>       0.16666667       0.00000000       0.16666667 </v>
    <v>      -0.16666667       0.00000000      -0.16666667 </v>
    <v>       0.33333333       0.16666667       0.00000000 </v>
    <v>      -0.33333333      -0.16666667       0.00000000 </v>
    <v>       0.00000000       0.33333333       0.16666667 </v>
    <v>       0.00000000      -0.33333333      -0.16666667 </v>
    <v>       0.16666667       0.00000000       0.33333333 </v>
    <v>      -0.16666667       0.00000000      -0.33333333 </v>
    <v>       0.16666667       0.16666667      -0.16666667 </v>
    <v>      -0.16666667      -0.16666667       0.16666667 </v>
    <v>       0.33333333       0.16666667       0.33333333 </v>
    <v>      -0.33333333      -0.16666667      -0.33333333 </v>
    <v>       0.16666667       0.33333333       0.00000000 </v>
    <v>      -0.16666667      -0.33333333       0.00000000 </v>
    <v>       0.16666667      -0.16666667      -0.16666667 </v>
    <v>      -0.16666667       0.16666667       0.16666667 </v>
    <v>       0.33333333       0.33333333       0.16666667 </v>
    <v>      -0.33333333      -0.33333333      -0.16666667 </v>
    <v>       0.00000000       0.16666667       0.33333333 </v>
    <v>       0.00000000      -0.16666667      -0.33333333 </v>
    <v>      -0.16666667       0.16666667      -0.16666667 </v>
    <v>       0.16666667      -0.16666667       0.16666667 </v>
    <v>       0.16666667       0.33333333       0.33333333 </v>
    <v>      -0.16666667      -0.33333333      -0.33333333 </v>
    <v>       0.33333333       0.00000000       0.16666667 </v>
    <v>      -0.33333333       0.00000000      -0.16666667 </v>
    <v>       0.50000000       0.16666667       0.00000000 </v>
    <v>       0.50000000      -0.16666667       0.00000000 </v>
    <v>       0.00000000       0.50000000       0.16666667 </v>
    <v>       0.00000000       0.50000000      -0.16666667 </v>
    <v>       0.16666667       0.00000000       0.50000000 </v>
    <v>      -0.16666667       0.00000000       0.50000000 </v>
    <v>       0.16666667       0.16666667      -0.33333333 </v>
    <v>      -0.16666667      -0.16666667       0.33333333 </v>
    <v>       0.50000000       0.33333333       0.50000000 </v>
    <v>       0.50000000      -0.33333333       0.50000000 </v>
    <v>       0.16666667       0.50000000       0.00000000 </v>
    <v>      -0.16666667       0.50000000       0.00000000 </v>
    <v>       0.33333333      -0.16666667      -0.16666667 </v>
    <v>      -0.33333333       0.16666667       0.16666667 </v>
    <v>       0.50000000       0.50000000       0.33333333 </v>
    <v>       0.50000000       0.50000000      -0.33333333 </v>
    <v>       0.00000000       0.16666667       0.50000000 </v>
    <v>       0.00000000      -0.16666667       0.50000000 </v>
    <v>      -0.16666667       0.33333333      -0.16666667 </v>
    <v>       0.16666667      -0.33333333       0.16666667 </v>
    <v>       0.33333333       0.50000000       0.50000000 </v>
    <v>      -0.33333333       0.50000000       0.50000000 </v>
    <v>       0.50000000       0.00000000       0.16666667 </v>
    <v>       0.50000000       0.00000000      -0.16666667 </v>
    <v>      -0.33333333       0.16666667       0.00000000 </v>
    <v>       0.33333333      -0.16666667       0.00000000 </v>
    <v>       0.00000000      -0.33333333       0.16666667 </v>
    <v>       0.00000000       0.33333333      -0.16666667 </v>
    <v>       0.16666667       0.00000000      -0.33333333 </v>
    <v>      -0.16666667       0.00000000       0.33333333 </v>
    <v>       0.16666667       0.16666667       0.50000000 </v>
    <v>      -0.16666667      -0.16666667       0.50000000 </v>
    <v>      -0.33333333       0.50000000      -0.33333333 </v>
    <v>       0.33333333       0.50000000       0.33333333 </v>
    <v>       0.16666667      -0.33333333       0.00000000 </v>
    <v>      -0.16666667       0.33333333       0.00000000 </v>
    <v>       0.50000000      -0.16666667      -0.16666667 </v>
    <v>       0.50000000       0.16666667       0.16666667 </v>
    <v>      -0.33333333      -0.33333333       0.50000000 </v>
    <v>       0.33333333       0.33333333       0.50000000 </v>
    <v>       0.00000000       0.16666667      -0.33333333 </v>
    <v>       0.00000000      -0.16666667       0.33333333 </v>
    <v>      -0.16666667       0.50000000      -0.16666667 </v>
    <v>       0.16666667       0.50000000       0.16666667 </v>
    <v>       0.50000000      -0.33333333      -0.33333333 </v>
    <v>       0.50000000       0.33333333       0.33333333 </v>
    <v>      -0.33333333       0.00000000       0.16666667 </v>
    <v>       0.33333333       0.00000000      -0.16666667 </v>
    <v>      -0.16666667       0.16666667       0.00000000 </v>
    <v>       0.16666667      -0.16666667       0.00000000 </v>
    <v>       0.00000000      -0.16666667       0.16666667 </v>
    <v>       0.00000000       0.16666667      -0.16666667 </v>
    <v>       0.16666667       0.00000000      -0.16666667 </v>
    <v>      -0.16666667       0.00000000       0.16666667 </v>
    <v>       0.16666667       0.16666667       0.33333333 </v>
    <v>      -0.16666667      -0.16666667      -0.33333333 </v>
    <v>      -0.16666667      -0.33333333      -0.16666667 </v>
    <v>       0.16666667       0.33333333       0.16666667 </v>
    <v>      -0.33333333      -0.16666667      -0.16666667 </v>
    <v>       0.33333333       0.16666667       0.16666667 </v>
    <v>       0.33333333       0.33333333       0.00000000 </v>
    <v>      -0.33333333      -0.33333333       0.00000000 </v>
    <v>       0.00000000       0.33333333       0.33333333 </v>
    <v>       0.00000000      -0.33333333      -0.33333333 </v>
    <v>       0.33333333       0.00000000       0.33333333 </v>
    <v>      -0.33333333       0.00000000      -0.33333333 </v>
    <v>       0.50000000       0.33333333       0.00000000 </v>
    <v>       0.50000000      -0.33333333       0.00000000 </v>
    <v>       0.00000000       0.50000000       0.33333333 </v>
    <v>       0.00000000       0.50000000      -0.33333333 </v>
    <v>       0.33333333       0.00000000       0.50000000 </v>
    <v>      -0.33333333       0.00000000       0.50000000 </v>
    <v>       0.33333333       0.33333333      -0.16666667 </v>
    <v>      -0.33333333      -0.33333333       0.16666667 </v>
    <v>       0.50000000       0.16666667       0.50000000 </v>
    <v>       0.50000000      -0.16666667       0.50000000 </v>
    <v>       0.33333333       0.50000000       0.00000000 </v>
    <v>      -0.33333333       0.50000000       0.00000000 </v>
    <v>       0.16666667      -0.33333333      -0.33333333 </v>
    <v>      -0.16666667       0.33333333       0.33333333 </v>
    <v>       0.50000000       0.50000000       0.16666667 </v>
    <v>       0.50000000       0.50000000      -0.16666667 </v>
    <v>       0.00000000       0.33333333       0.50000000 </v>
    <v>       0.00000000      -0.33333333       0.50000000 </v>
    <v>      -0.33333333       0.16666667      -0.33333333 </v>
    <v>       0.33333333      -0.16666667       0.33333333 </v>
    <v>       0.16666667       0.50000000       0.50000000 </v>
    <v>      -0.16666667       0.50000000       0.50000000 </v>
    <v>       0.50000000       0.00000000       0.33333333 </v>
    <v>       0.50000000       0.00000000      -0.33333333 </v>
    <v>      -0.33333333       0.33333333       0.00000000 </v>
    <v>       0.33333333      -0.33333333       0.00000000 </v>
    <v>       0.00000000      -0.33333333       0.33333333 </v>
    <v>       0.00000000       0.33333333      -0.33333333 </v>
    <v>       0.33333333       0.00000000      -0.33333333 </v>
    <v>      -0.33333333       0.00000000       0.33333333 </v>
    <v>       0.33333333       0.33333333      -0.33333333 </v>
    <v>      -0.33333333      -0.33333333       0.33333333 </v>
    <v>      -0.33333333       0.33333333      -0.33333333 </v>
    <v>       0.33333333      -0.33333333       0.33333333 </v>
    <v>       0.33333333      -0.33333333      -0.33333333 </v>
    <v>      -0.33333333       0.33333333       0.33333333 </v>
    <v>       0.50000000       0.50000000       0.00000000 </v>
    <v>       0.00000000       0.50000000       0.50000000 </v>
    <v>       0.50000000       0.00000000       0.50000000 </v>
    <v>       0.50000000       0.33333333       0.16666667 </v>
    <v>       0.50000000      -0.33333333      -0.16666667 </v>
    <v>       0.16666667       0.50000000       0.33333333 </v>
    <v>      -0.16666667       0.50000000      -0.33333333 </v>
    <v>       0.33333333       0.16666667       0.50000000 </v>
    <v>      -0.33333333      -0.16666667       0.50000000 </v>
    <v>       0.33333333       0.16666667      -0.16666667 </v>
    <v>      -0.33333333      -0.16666667       0.16666667 </v>
    <v>       0.50000000       0.16666667       0.33333333 </v>
    <v>       0.50000000      -0.16666667      -0.33333333 </v>
    <v>       0.16666667      -0.33333333      -0.16666667 </v>
    <v>      -0.16666667       0.33333333       0.16666667 </v>
    <v>       0.16666667       0.33333333      -0.16666667 </v>
    <v>      -0.16666667      -0.33333333       0.16666667 </v>
    <v>       0.16666667      -0.16666667      -0.33333333 </v>
    <v>      -0.16666667       0.16666667       0.33333333 </v>
    <v>       0.33333333       0.50000000       0.16666667 </v>
    <v>      -0.33333333       0.50000000      -0.16666667 </v>
    <v>      -0.16666667       0.16666667      -0.33333333 </v>
    <v>       0.16666667      -0.16666667       0.33333333 </v>
    <v>      -0.33333333       0.16666667      -0.16666667 </v>
    <v>       0.33333333      -0.16666667       0.16666667 </v>
    <v>       0.16666667       0.33333333       0.50000000 </v>
    <v>      -0.16666667      -0.33333333       0.50000000 </v>
    <v>      -0.33333333       0.33333333       0.16666667 </v>
    <v>       0.33333333      -0.33333333      -0.16666667 </v>
    <v>       0.16666667      -0.33333333       0.33333333 </v>
    <v>      -0.16666667       0.33333333      -0.33333333 </v>
    <v>       0.33333333       0.16666667      -0.33333333 </v>
    <v>      -0.33333333      -0.16666667       0.33333333 </v>
    <v>      -0.33333333       0.33333333       0.50000000 </v>
    <v>       0.33333333      -0.33333333       0.50000000 </v>
    <v>       0.16666667       0.50000000      -0.16666667 </v>
    <v>      -0.16666667       0.50000000       0.16666667 </v>
    <v>       0.33333333      -0.16666667      -0.33333333 </v>
    <v>      -0.33333333       0.16666667       0.33333333 </v>
    <v>       0.50000000      -0.33333333       0.33333333 </v>
    <v>       0.50000000       0.33333333      -0.33333333 </v>
    <v>      -0.16666667       0.16666667       0.50000000 </v>
    <v>       0.16666667      -0.16666667       0.50000000 </v>
    <v>      -0.33333333       0.33333333      -0.16666667 </v>
    <v>       0.33333333      -0.33333333       0.16666667 </v>
    <v>       0.33333333       0.50000000      -0.33333333 </v>
    <v>      -0.33333333       0.50000000       0.33333333 </v>
    <v>       0.50000000      -0.16666667       0.16666667 </v>
    <v>       0.50000000       0.16666667      -0.16666667 </v>
    <v>      -0.16666667      -0.33333333       0.33333333 </v>
    <v>       0.16666667       0.33333333      -0.33333333 </v>
    <v>      -0.33333333       0.50000000       0.16666667 </v>
    <v>       0.33333333       0.50000000      -0.16666667 </v>
    <v>       0.16666667      -0.33333333       0.50000000 </v>
    <v>      -0.16666667       0.33333333       0.50000000 </v>
    <v>       0.50000000       0.16666667      -0.33333333 </v>
    <v>       0.50000000      -0.16666667       0.33333333 </v>
    <v>       0.50000000       0.33333333      -0.16666667 </v>
    <v>       0.50000000      -0.33333333       0.16666667 </v>
    <v>      -0.33333333       0.16666667       0.50000000 </v>
    <v>       0.33333333      -0.16666667       0.50000000 </v>
    <v>       0.16666667       0.50000000      -0.33333333 </v>
    <v>      -0.16666667       0.50000000       0.33333333 </v>
   </varray>
   <varray name="weights" >
    <v>       0.00462963 </v>
    <v>       0.00462963 </v>
    <v>       0.00462963 </v>
    <v>       0.00462963 </v>
    <v>       0.00462963 </v>
    <v>       0.00462963 </v>
    <v>       0.00462963 </v>
    <v>       0.00462963 </v>
    <v>       0.00462963 </v>
    <v>       0.00462963 </v>
    <v>       0.00462963 </v>
    <v>       0.00462963 </v>
    <v>       0.00462963 </v>
    <v>       0.00462963 </v>
    <v>       0.00462963 </v>
    <v>       0.00462963 </v>
    <v>       0.00462963 </v>
    <v>       0.00462963 </v>
    <v>       0.00462963 </v>
    <v>       0.00462963 </v>
    <v>       0.00462963 </v>
    <v>       0.00462963 </v>
    <v>       0.00462963 </v>
    <v>       0.00462963 </v>
    <v>       0.00462963 </v>
    <v>       0.00462963 </v>
    <v>       0.00462963 </v>
    <v>       0.00462963 </v>
    <v>       0.00462963 </v>
    <v>       0.00462963 </v>
    <v>       0.00462963 </v>
    <v>       0.00462963 </v>
    <v>       0.00462963 </v>
    <v>       0.00462963 </v>
    <v>       0.00462963 </v>
    <v>       0.00462963 </v>
    <v>       0.00462963 </v>
    <v>       0.00462963 </v>
    <v>       0.00462963 </v>
    <v>       0.00462963 </v>
    <v>       0.00462963 </v>
    <v>       0.00462963 </v>
    <v>       0.00462963 </v>
    <v>       0.00462963 </v>
    <v>       0.00462963 </v>
    <v>       0.00462963 </v>
    <v>       0.00462963 </v>
    <v>       0.00462963 </v>
    <v>       0.00462963 </v>
    <v>       0.00462963 </v>
    <v>       0.00462963 </v>
    <v>       0.00462963 </v>
    <v>       0.00462963 </v>
    <v>       0.00462963 </v>
    <v>       0.00462963 </v>
    <v>       0.00462963 </v>
    <v>       0.00462963 </v>
    <v>       0.00462963 </v>
    <v>       0.00462963 </v>
    <v>       0.00462963 </v>
    <v>       0.00462963 </v>
    <v>       0.00462963 </v>
    <v>       0.00462963 </v>
    <v>       0.00462963 </v>
    <v>       0.00462963 </v>
    <v>       0.00462963 </v>
    <v>       0.00462963 </v>
    <v>       0.00462963 </v>
    <v>       0.00462963 </v>
    <v>       0.00462963 </v>
    <v>       0.00462963 </v>
    <v>       0.00462963 </v>
    <v>       0.00462963 </v>
    <v>       0.00462963 </v>
    <v>       0.00462963 </v>
    <v>       0.00462963 </v>
    <v>       0.00462963 </v>
    <v>       0.00462963 </v>
    <v>       0.00462963 </v>
    <v>       0.00462963 </v>
    <v>       0.00462963 </v>
    <v>       0.00462963 </v>
    <v>       0.00462963 </v>
    <v>       0.00462963 </v>
    <v>       0.00462963 </v>
    <v>       0.00462963 </v>
    <v>       0.00462963 </v>
    <v>       0.00462963 </v>
    <v>       0.00462963 </v>
    <v>       0.00462963 </v>
    <v>       0.00462963 </v>
    <v>       0.00462963 </v>
    <v>       0.00462963 </v>
    <v>       0.00462963 </v>
    <v>       0.00462963 </v>
    <v>       0.00462963 </v>
    <v>       0.00462963 </v>
    <v>       0.00462963 </v>
    <v>       0.00462963 </v>
    <v>       0.00462963 </v>
    <v>       0.00462963 </v>
    <v>       0.00462963 </v>
    <v>       0.00462963 </v>
    <v>       0.00462963 </v>
    <v>       0.00462963 </v>
    <v>       0.00462963 </v>
    <v>       0.00462963 </v>
    <v>       0.00462963 </v>
    <v>       0.00462963 </v>
    <v>       0.00462963 </v>
    <v>       0.00462963 </v>
    <v>       0.00462963 </v>
    <v>       0.00462963 </v>
    <v>       0.00462963 </v>
    <v>       0.00462963 </v>
    <v>       0.00462963 </v>
    <v>       0.00462963 </v>
    <v>       0.00462963 </v>
    <v>       0.00462963 </v>
    <v>       0.00462963 </v>
    <v>       0.00462963 </v>
    <v>       0.00462963 </v>
    <v>       0.00462963 </v>
    <v>       0.00462963 </v>
    <v>       0.00462963 </v>
    <v>       0.00462963 </v>
    <v>       0.00462963 </v>
    <v>       0.00462963 </v>
    <v>       0.00462963 </v>
    <v>       0.00462963 </v>
    <v>       0.00462963 </v>
    <v>       0.00462963 </v>
    <v>       0.00462963 </v>
    <v>       0.00462963 </v>
    <v>       0.00462963 </v>
    <v>       0.00462963 </v>
    <v>       0.00462963 </v>
    <v>       0.00462963 </v>
    <v>       0.00462963 </v>
    <v>       0.00462963 </v>
    <v>       0.00462963 </v>
    <v>       0.00462963 </v>
    <v>       0.00462963 </v>
    <v>       0.00462963 </v>
    <v>       0.00462963 </v>
    <v>       0.00462963 </v>
    <v>       0.00462963 </v>
    <v>       0.00462963 </v>
    <v>       0.00462963 </v>
    <v>       0.00462963 </v>
    <v>       0.00462963 </v>
    <v>       0.00462963 </v>
    <v>       0.00462963 </v>
    <v>       0.00462963 </v>
    <v>       0.00462963 </v>
    <v>       0.00462963 </v>
    <v>       0.00462963 </v>
    <v>       0.00462963 </v>
    <v>       0.00462963 </v>
    <v>       0.00462963 </v>
    <v>       0.00462963 </v>
    <v>       0.00462963 </v>
    <v>       0.00462963 </v>
    <v>       0.00462963 </v>
    <v>       0.00462963 </v>
    <v>       0.00462963 </v>
    <v>       0.00462963 </v>
    <v>       0.00462963 </v>
    <v>       0.00462963 </v>
    <v>       0.00462963 </v>
    <v>       0.00462963 </v>
    <v>       0.00462963 </v>
    <v>       0.00462963 </v>
    <v>       0.00462963 </v>
    <v>       0.00462963 </v>
    <v>       0.00462963 </v>
    <v>       0.00462963 </v>
    <v>       0.00462963 </v>
    <v>       0.00462963 </v>
    <v>       0.00462963 </v>
    <v>       0.00462963 </v>
    <v>       0.00462963 </v>
    <v>       0.00462963 </v>
    <v>       0.00462963 </v>
    <v>       0.00462963 </v>
    <v>       0.00462963 </v>
    <v>       0.00462963 </v>
    <v>       0.00462963 </v>
    <v>       0.00462963 </v>
    <v>       0.00462963 </v>
    <v>       0.00462963 </v>
    <v>       0.00462963 </v>
    <v>       0.00462963 </v>
    <v>       0.00462963 </v>
    <v>       0.00462963 </v>
    <v>       0.00462963 </v>
    <v>       0.00462963 </v>
    <v>       0.00462963 </v>
    <v>       0.00462963 </v>
    <v>       0.00462963 </v>
    <v>       0.00462963 </v>
    <v>       0.00462963 </v>
    <v>       0.00462963 </v>
    <v>       0.00462963 </v>
    <v>       0.00462963 </v>
    <v>       0.00462963 </v>
    <v>       0.00462963 </v>
    <v>       0.00462963 </v>
    <v>       0.00462963 </v>
    <v>       0.00462963 </v>
    <v>       0.00462963 </v>
    <v>       0.00462963 </v>
    <v>       0.00462963 </v>
    <v>       0.00462963 </v>
    <v>       0.00462963 </v>
    <v>       0.00462963 </v>
   </varray>
  </kpoints>
  <dielectricfunction comment="HEAD OF MICROSCOPIC DIELECTRIC TENSOR (INDEPENDENT PARTICLE)">
   <imag>
    <array>
     <dimension dim="1">gridpoints</dimension>
     <field>energy</field>
     <field>xx</field>
     <field>yy</field>
     <field>zz</field>
     <field>xy</field>
     <field>yz</field>
     <field>zx</field>
     <set>
      <r>     0.0000     0.0000     0.0000    -0.0000    -0.0000     0.0000     0.0000 </r>
      <r>     0.2835     0.1046     0.1046     0.1046     0.0000     0.0000     0.0000 </r>
      <r>     0.5667     0.2188     0.2188     0.2188     0.0000     0.0000     0.0000 </r>
      <r>     0.8494     0.3545     0.3545     0.3545     0.0000     0.0000     0.0000 </r>
      <r>     1.1313     0.5303     0.5303     0.5303     0.0000     0.0000     0.0000 </r>
      <r>     1.4122     0.7798     0.7798     0.7798     0.0000     0.0000     0.0000 </r>
      <r>     1.6919     1.1748     1.1748     1.1748     0.0000     0.0000     0.0000 </r>
      <r>     1.9700     1.9025     1.9025     1.9025     0.0000     0.0000     0.0000 </r>
      <r>     2.2466     3.6398     3.6398     3.6398     0.0000    -0.0000    -0.0000 </r>
      <r>     2.5213    10.0292    10.0292    10.0292     0.0000    -0.0000    -0.0000 </r>
      <r>     2.7941    23.4235    23.4235    23.4235     0.0000    -0.0000    -0.0000 </r>
      <r>     3.0648    24.1729    24.1729    24.1729     0.0000     0.0000     0.0000 </r>
      <r>     3.3333    21.2658    21.2658    21.2658     0.0000     0.0000     0.0000 </r>
      <r>     3.5996    32.3251    32.3251    32.3251     0.0000     0.0000     0.0000 </r>
      <r>     3.8635    52.7652    52.7652    52.7652     0.0000    -0.0000     0.0000 </r>
      <r>     4.1251    31.0644    31.0644    31.0644     0.0000    -0.0000     0.0000 </r>
      <r>     4.3844    14.5230    14.5230    14.5230     0.0000    -0.0000     0.0000 </r>
      <r>     4.6414    11.6113    11.6113    11.6113     0.0000    -0.0000    -0.0000 </r>
      <r>     4.8962     8.1814     8.1814     8.1814    -0.0000    -0.0000    -0.0000 </r>
      <r>     5.1487     5.3768     5.3768     5.3768    -0.0000     0.0000    -0.0000 </r>
      <r>     5.3991     4.8534     4.8534     4.8534    -0.0000     0.0000    -0.0000 </r>
      <r>     5.6474     5.5550     5.5550     5.5550     0.0000    -0.0000     0.0000 </r>
      <r>     5.8938     6.0561     6.0561     6.0561     0.0000    -0.0000     0.0000 </r>
      <r>     6.1384     8.1743     8.1743     8.1743     0.0000    -0.0000     0.0000 </r>
      <r>     6.3812     9.9238     9.9238     9.9238     0.0000    -0.0000     0.0000 </r>
      <r>     6.6225     8.4983     8.4983     8.4983     0.0000    -0.0000     0.0000 </r>
      <r>     6.8624     5.8649     5.8649     5.8649     0.0000    -0.0000     0.0000 </r>
      <r>     7.1010     4.7044     4.7044     4.7044     0.0000    -0.0000    -0.0000 </r>
      <r>     7.3386     4.0924     4.0924     4.0924    -0.0000     0.0000    -0.0000 </r>
      <r>     7.5752     3.1332     3.1332     3.1332    -0.0000     0.0000    -0.0000 </r>
      <r>     7.8112     2.5385     2.5385     2.5385    -0.0000     0.0000    -0.0000 </r>
      <r>     8.0465     1.7926     1.7926     1.7926    -0.0000    -0.0000    -0.0000 </r>
      <r>     8.2816     1.2378     1.2378     1.2378    -0.0000    -0.0000    -0.0000 </r>
      <r>     8.5165     1.1337     1.1337     1.1337    -0.0000    -0.0000    -0.0000 </r>
      <r>     8.7515     1.3992     1.3992     1.3992    -0.0000    -0.0000    -0.0000 </r>
      <r>     8.9869     1.3435     1.3435     1.3435    -0.0000    -0.0000    -0.0000 </r>
      <r>     9.2227     1.2133     1.2133     1.2133    -0.0000    -0.0000    -0.0000 </r>
      <r>     9.4594     1.0884     1.0884     1.0884    -0.0000    -0.0000    -0.0000 </r>
      <r>     9.6969     1.0777     1.0777     1.0777    -0.0000    -0.0000    -0.0000 </r>
      <r>     9.9359     1.0325     1.0325     1.0325    -0.0000    -0.0000    -0.0000 </r>
      <r>    10.1763     1.0842     1.0842     1.0842    -0.0000     0.0000    -0.0000 </r>
      <r>    10.4186     1.0564     1.0564     1.0564    -0.0000     0.0000     0.0000 </r>
      <r>    10.6630     0.8542     0.8542     0.8542     0.0000    -0.0000     0.0000 </r>
      <r>    10.9096     0.7378     0.7378     0.7378     0.0000    -0.0000     0.0000 </r>
      <r>    11.1592     0.6636     0.6636     0.6636    -0.0000     0.0000     0.0000 </r>
      <r>    11.4116     0.5442     0.5442     0.5442    -0.0000     0.0000     0.0000 </r>
      <r>    11.6677     0.4354     0.4354     0.4354     0.0000     0.0000     0.0000 </r>
      <r>    11.9272     0.3394     0.3394     0.3394    -0.0000     0.0000    -0.0000 </r>
      <r>    12.1913     0.3749     0.3749     0.3749    -0.0000     0.0000    -0.0000 </r>
      <r>    12.4596     0.4932     0.4932     0.4932    -0.0000     0.0000    -0.0000 </r>
      <r>    12.7332     0.4767     0.4767     0.4767     0.0000    -0.0000    -0.0000 </r>
      <r>    13.0122     0.4179     0.4179     0.4179     0.0000    -0.0000     0.0000 </r>
      <r>    13.2969     0.4752     0.4752     0.4752     0.0000    -0.0000     0.0000 </r>
      <r>    13.5885     0.4850     0.4850     0.4850    -0.0000    -0.0000    -0.0000 </r>
      <r>    13.8872     0.3578     0.3578     0.3578    -0.0000     0.0000    -0.0000 </r>
      <r>    14.1936     0.3224     0.3224     0.3224    -0.0000     0.0000    -0.0000 </r>
      <r>    14.5082     0.3010     0.3010     0.3010    -0.0000     0.0000     0.0000 </r>
      <r>    14.8321     0.3088     0.3088     0.3088     0.0000    -0.0000     0.0000 </r>
      <r>    15.1659     0.2093     0.2093     0.2093     0.0000    -0.0000    -0.0000 </r>
      <r>    15.5107     0.1909     0.1909     0.1909    -0.0000    -0.0000    -0.0000 </r>
      <r>    15.8672     0.1784     0.1784     0.1784     0.0000    -0.0000     0.0000 </r>
      <r>    16.2367     0.1331     0.1331     0.1331     0.0000    -0.0000     0.0000 </r>
      <r>    16.6199     0.1191     0.1191     0.1191     0.0000    -0.0000     0.0000 </r>
      <r>    17.0181     0.1052     0.1052     0.1052    -0.0000     0.0000    -0.0000 </r>
      <r>    17.4333     0.1048     0.1048     0.1048    -0.0000     0.0000    -0.0000 </r>
      <r>    17.8662     0.0923     0.0923     0.0923     0.0000     0.0000     0.0000 </r>
      <r>    18.3193     0.0905     0.0905     0.0905     0.0000    -0.0000    -0.0000 </r>
      <r>    18.7939     0.0997     0.0997     0.0997     0.0000    -0.0000    -0.0000 </r>
      <r>    19.2922     0.0882     0.0882     0.0882     0.0000    -0.0000    -0.0000 </r>
      <r>    19.8168     0.0751     0.0751     0.0751    -0.0000     0.0000     0.0000 </r>
      <r>    20.3702     0.0586     0.0586     0.0586     0.0000     0.0000     0.0000 </r>
      <r>    20.9551     0.0588     0.0588     0.0588     0.0000    -0.0000     0.0000 </r>
      <r>    21.5758     0.0448     0.0448     0.0448    -0.0000     0.0000    -0.0000 </r>
      <r>    22.2353     0.0337     0.0337     0.0337    -0.0000     0.0000    -0.0000 </r>
      <r>    22.9382     0.0307     0.0307     0.0307    -0.0000    -0.0000    -0.0000 </r>
      <r>    23.6895     0.0301     0.0301     0.0301    -0.0000    -0.0000    -0.0000 </r>
      <r>    24.4955     0.0323     0.0323     0.0323    -0.0000    -0.0000    -0.0000 </r>
      <r>    25.3624     0.0302     0.0302     0.0302    -0.0000     0.0000    -0.0000 </r>
      <r>    26.2985     0.0255     0.0255     0.0255     0.0000     0.0000     0.0000 </r>
      <r>    27.3126     0.0223     0.0223     0.0223     0.0000    -0.0000     0.0000 </r>
      <r>    28.4157     0.0225     0.0225     0.0225    -0.0000    -0.0000     0.0000 </r>
      <r>    29.6206     0.0266     0.0266     0.0266     0.0000    -0.0000     0.0000 </r>
      <r>    30.9430     0.0226     0.0226     0.0226     0.0000     0.0000     0.0000 </r>
      <r>    32.4010     0.0195     0.0195     0.0195     0.0000    -0.0000     0.0000 </r>
      <r>    34.0174     0.0246     0.0246     0.0246     0.0000     0.0000     0.0000 </r>
      <r>    35.8198     0.0210     0.0210     0.0210     0.0000     0.0000     0.0000 </r>
      <r>    37.8425     0.0221     0.0221     0.0221     0.0000    -0.0000     0.0000 </r>
      <r>    40.1291     0.0215     0.0215     0.0215     0.0000    -0.0000    -0.0000 </r>
      <r>    42.7342     0.0159     0.0159     0.0159    -0.0000    -0.0000    -0.0000 </r>
      <r>    45.7297     0.0136     0.0136     0.0136    -0.0000    -0.0000    -0.0000 </r>
      <r>    49.2093     0.0128     0.0128     0.0128    -0.0000    -0.0000    -0.0000 </r>
      <r>    53.2999     0.0086     0.0086     0.0086    -0.0000    -0.0000    -0.0000 </r>
      <r>    58.1762     0.0087     0.0087     0.0087    -0.0000    -0.0000    -0.0000 </r>
      <r>    64.0858     0.0075     0.0075     0.0075    -0.0000    -0.0000    -0.0000 </r>
      <r>    71.3920     0.0025     0.0025     0.0025    -0.0000    -0.0000    -0.0000 </r>
      <r>    80.6508     0.0003     0.0003     0.0003    -0.0000    -0.0000    -0.0000 </r>
      <r>    92.7564     0.0001     0.0001     0.0001    -0.0000    -0.0000    -0.0000 </r>
      <r>   109.2469     0.0001     0.0001     0.0001    -0.0000    -0.0000    -0.0000 </r>
      <r>   133.0098     0.0000     0.0000     0.0000    -0.0000    -0.0000    -0.0000 </r>
      <r>   170.1783     0.0000     0.0000     0.0000    -0.0000    -0.0000    -0.0000 </r>
     </set>
    </array>
   </imag>
   <real>
    <array>
     <dimension dim="1">gridpoints</dimension>
     <field>energy</field>
     <field>xx</field>
     <field>yy</field>
     <field>zz</field>
     <field>xy</field>
     <field>yz</field>
     <field>zx</field>
     <set>
      <r>     0.0000    14.9231    14.9231    14.9231    -0.0000    -0.0000    -0.0000 </r>
      <r>     0.2835    15.0087    15.0087    15.0087    -0.0000    -0.0000    -0.0000 </r>
      <r>     0.5667    15.2727    15.2727    15.2727    -0.0000    -0.0000    -0.0000 </r>
      <r>     0.8494    15.7388    15.7388    15.7388    -0.0000    -0.0000    -0.0000 </r>
      <r>     1.1313    16.4532    16.4532    16.4532    -0.0000    -0.0000    -0.0000 </r>
      <r>     1.4122    17.5000    17.5000    17.5000    -0.0000    -0.0000    -0.0000 </r>
      <r>     1.6919    19.0345    19.0345    19.0345    -0.0000    -0.0000    -0.0000 </r>
      <r>     1.9700    21.3679    21.3679    21.3679    -0.0000    -0.0000    -0.0000 </r>
      <r>     2.2466    25.1973    25.1973    25.1973     0.0000    -0.0000    -0.0000 </r>
      <r>     2.5213    31.0803    31.0803    31.0803     0.0000    -0.0000    -0.0000 </r>
      <r>     2.7941    27.2659    27.2659    27.2659     0.0000    -0.0000     0.0000 </r>
      <r>     3.0648    17.3069    17.3069    17.3069     0.0000     0.0000     0.0000 </r>
      <r>     3.3333    18.1355    18.1355    18.1355    -0.0000    -0.0000    -0.0000 </r>
      <r>     3.5996    24.2771    24.2771    24.2771    -0.0000    -0.0000    -0.0000 </r>
      <r>     3.8635     1.5700     1.5700     1.5700    -0.0000    -0.0000    -0.0000 </r>
      <r>     4.1251   -22.6391   -22.6391   -22.6391    -0.0000    -0.0000    -0.0000 </r>
      <r>     4.3844   -16.9467   -16.9467   -16.9467    -0.0000    -0.0000    -0.0000 </r>
      <r>     4.6414   -12.1168   -12.1168   -12.1168    -0.0000    -0.0000    -0.0000 </r>
      <r>     4.8962   -10.9041   -10.9041   -10.9041    -0.0000    -0.0000    -0.0000 </r>
      <r>     5.1487    -7.9190    -7.9190    -7.9190    -0.0000    -0.0000    -0.0000 </r>
      <r>     5.3991    -4.8291    -4.8291    -4.8291     0.0000    -0.0000    -0.0000 </r>
      <r>     5.6474    -3.1964    -3.1964    -3.1964     0.0000    -0.0000    -0.0000 </r>
      <r>     5.8938    -1.9180    -1.9180    -1.9180    -0.0000    -0.0000    -0.0000 </r>
      <r>     6.1384    -1.3393    -1.3393    -1.3393    -0.0000    -0.0000    -0.0000 </r>
      <r>     6.3812    -3.6172    -3.6172    -3.6172    -0.0000    -0.0000    -0.0000 </r>
      <r>     6.6225    -6.4415    -6.4415    -6.4415    -0.0000    -0.0000    -0.0000 </r>
      <r>     6.8624    -6.8189    -6.8189    -6.8189    -0.0000    -0.0000    -0.0000 </r>
      <r>     7.1010    -6.0176    -6.0176    -6.0176    -0.0000     0.0000    -0.0000 </r>
      <r>     7.3386    -5.8411    -5.8411    -5.8411    -0.0000     0.0000    -0.0000 </r>
      <r>     7.5752    -5.5722    -5.5722    -5.5722    -0.0000    -0.0000    -0.0000 </r>
      <r>     7.8112    -5.1493    -5.1493    -5.1493    -0.0000    -0.0000    -0.0000 </r>
      <r>     8.0465    -4.7503    -4.7503    -4.7503    -0.0000    -0.0000    -0.0000 </r>
      <r>     8.2816    -4.0033    -4.0033    -4.0033    -0.0000    -0.0000    -0.0000 </r>
      <r>     8.5165    -3.1900    -3.1900    -3.1900    -0.0000    -0.0000    -0.0000 </r>
      <r>     8.7515    -2.8167    -2.8167    -2.8167    -0.0000    -0.0000    -0.0000 </r>
      <r>     8.9869    -2.7376    -2.7376    -2.7376    -0.0000    -0.0000    -0.0000 </r>
      <r>     9.2227    -2.5530    -2.5530    -2.5530    -0.0000    -0.0000    -0.0000 </r>
      <r>     9.4594    -2.3113    -2.3113    -2.3113    -0.0000    -0.0000    -0.0000 </r>
      <r>     9.6969    -2.1025    -2.1025    -2.1025    -0.0000    -0.0000    -0.0000 </r>
      <r>     9.9359    -1.9334    -1.9334    -1.9334    -0.0000    -0.0000    -0.0000 </r>
      <r>    10.1763    -1.8077    -1.8077    -1.8077    -0.0000    -0.0000    -0.0000 </r>
      <r>    10.4186    -1.8426    -1.8426    -1.8426    -0.0000    -0.0000    -0.0000 </r>
      <r>    10.6630    -1.7968    -1.7968    -1.7968    -0.0000    -0.0000    -0.0000 </r>
      <r>    10.9096    -1.6370    -1.6370    -1.6370    -0.0000    -0.0000    -0.0000 </r>
      <r>    11.1592    -1.5321    -1.5321    -1.5321    -0.0000    -0.0000    -0.0000 </r>
      <r>    11.4116    -1.4240    -1.4240    -1.4240    -0.0000    -0.0000    -0.0000 </r>
      <r>    11.6677    -1.2780    -1.2780    -1.2780    -0.0000    -0.0000    -0.0000 </r>
      <r>    11.9272    -1.0749    -1.0749    -1.0749    -0.0000    -0.0000    -0.0000 </r>
      <r>    12.1913    -0.8453    -0.8453    -0.8453    -0.0000    -0.0000    -0.0000 </r>
      <r>    12.4596    -0.7668    -0.7668    -0.7668    -0.0000    -0.0000    -0.0000 </r>
      <r>    12.7332    -0.7730    -0.7730    -0.7730    -0.0000    -0.0000    -0.0000 </r>
      <r>    13.0122    -0.6757    -0.6757    -0.6757    -0.0000    -0.0000    -0.0000 </r>
      <r>    13.2969    -0.5907    -0.5907    -0.5907    -0.0000    -0.0000    -0.0000 </r>
      <r>    13.5885    -0.6337    -0.6337    -0.6337    -0.0000    -0.0000    -0.0000 </r>
      <r>    13.8872    -0.6060    -0.6060    -0.6060    -0.0000    -0.0000    -0.0000 </r>
      <r>    14.1936    -0.5037    -0.5037    -0.5037    -0.0000    -0.0000    -0.0000 </r>
      <r>    14.5082    -0.4287    -0.4287    -0.4287    -0.0000    -0.0000    -0.0000 </r>
      <r>    14.8321    -0.4073    -0.4073    -0.4073    -0.0000    -0.0000    -0.0000 </r>
      <r>    15.1659    -0.3652    -0.3652    -0.3652    -0.0000    -0.0000    -0.0000 </r>
      <r>    15.5107    -0.2629    -0.2629    -0.2629    -0.0000    -0.0000    -0.0000 </r>
      <r>    15.8672    -0.2158    -0.2158    -0.2158    -0.0000    -0.0000    -0.0000 </r>
      <r>    16.2367    -0.1538    -0.1538    -0.1538    -0.0000    -0.0000    -0.0000 </r>
      <r>    16.6199    -0.0780    -0.0780    -0.0780    -0.0000    -0.0000    -0.0000 </r>
      <r>    17.0181    -0.0128    -0.0128    -0.0128    -0.0000    -0.0000    -0.0000 </r>
      <r>    17.4333     0.0452     0.0452     0.0452    -0.0000    -0.0000    -0.0000 </r>
      <r>    17.8662     0.0969     0.0969     0.0969    -0.0000    -0.0000    -0.0000 </r>
      <r>    18.3193     0.1555     0.1555     0.1555    -0.0000    -0.0000    -0.0000 </r>
      <r>    18.7939     0.1954     0.1954     0.1954    -0.0000    -0.0000    -0.0000 </r>
      <r>    19.2922     0.2265     0.2265     0.2265    -0.0000    -0.0000    -0.0000 </r>
      <r>    19.8168     0.2645     0.2645     0.2645    -0.0000    -0.0000    -0.0000 </r>
      <r>    20.3702     0.3101     0.3101     0.3101    -0.0000    -0.0000    -0.0000 </r>
      <r>    20.9551     0.3516     0.3516     0.3516    -0.0000    -0.0000    -0.0000 </r>
      <r>    21.5758     0.3865     0.3865     0.3865    -0.0000    -0.0000    -0.0000 </r>
      <r>    22.2353     0.4312     0.4312     0.4312    -0.0000    -0.0000    -0.0000 </r>
      <r>    22.9382     0.4748     0.4748     0.4748    -0.0000    -0.0000    -0.0000 </r>
      <r>    23.6895     0.5143     0.5143     0.5143    -0.0000    -0.0000    -0.0000 </r>
      <r>    24.4955     0.5485     0.5485     0.5485    -0.0000    -0.0000    -0.0000 </r>
      <r>    25.3624     0.5782     0.5782     0.5782    -0.0000    -0.0000    -0.0000 </r>
      <r>    26.2985     0.6093     0.6093     0.6093    -0.0000    -0.0000    -0.0000 </r>
      <r>    27.3126     0.6419     0.6419     0.6419    -0.0000    -0.0000    -0.0000 </r>
      <r>    28.4157     0.6741     0.6741     0.6741    -0.0000    -0.0000    -0.0000 </r>
      <r>    29.6206     0.7001     0.7001     0.7001    -0.0000    -0.0000    -0.0000 </r>
      <r>    30.9430     0.7233     0.7233     0.7233    -0.0000    -0.0000    -0.0000 </r>
      <r>    32.4010     0.7514     0.7514     0.7514    -0.0000    -0.0000    -0.0000 </r>
      <r>    34.0174     0.7749     0.7749     0.7749    -0.0000    -0.0000    -0.0000 </r>
      <r>    35.8198     0.7950     0.7950     0.7950    -0.0000    -0.0000    -0.0000 </r>
      <r>    37.8425     0.8162     0.8162     0.8162    -0.0000    -0.0000    -0.0000 </r>
      <r>    40.1291     0.8327     0.8327     0.8327    -0.0000    -0.0000    -0.0000 </r>
      <r>    42.7342     0.8501     0.8501     0.8501    -0.0000    -0.0000    -0.0000 </r>
      <r>    45.7297     0.8695     0.8695     0.8695    -0.0000    -0.0000    -0.0000 </r>
      <r>    49.2093     0.8859     0.8859     0.8859    -0.0000    -0.0000    -0.0000 </r>
      <r>    53.2999     0.9019     0.9019     0.9019    -0.0000    -0.0000    -0.0000 </r>
      <r>    58.1762     0.9176     0.9176     0.9176    -0.0000    -0.0000    -0.0000 </r>
      <r>    64.0858     0.9294     0.9294     0.9294    -0.0000    -0.0000    -0.0000 </r>
      <r>    71.3920     0.9416     0.9416     0.9416     0.0000     0.0000     0.0000 </r>
      <r>    80.6508     0.9553     0.9553     0.9553     0.0000     0.0000     0.0000 </r>
      <r>    92.7564     0.9670     0.9670     0.9670     0.0000     0.0000     0.0000 </r>
      <r>   109.2469     0.9765     0.9765     0.9765     0.0000     0.0000     0.0000 </r>
      <r>   133.0098     0.9843     0.9843     0.9843     0.0000     0.0000     0.0000 </r>
      <r>   170.1783     0.9905     0.9905     0.9905     0.0000     0.0000     0.0000 </r>
     </set>
    </array>
   </real>
  </dielectricfunction>
  <varray name="epsilon_diag_mic" >
   <v>       0.00000000      14.92310705 </v>
   <v>       2.00419819       1.76117469 </v>
   <v>       4.00839639       1.09211043 </v>
   <v>       6.01259458       1.00300498 </v>
   <v>       8.01679277       1.00003373 </v>
   <v>       8.01679277       1.00003373 </v>
   <v>       6.01259458       1.00300498 </v>
   <v>       4.00839639       1.09211045 </v>
   <v>       2.00419819       1.76117468 </v>
   <v>       2.00419819       1.76117605 </v>
   <v>       2.31424873       1.59168325 </v>
   <v>       3.83774736       1.11385738 </v>
   <v>       5.66872853       1.00603648 </v>
   <v>       7.58777189       1.00015479 </v>
   <v>       6.94274620       1.00045312 </v>
   <v>       5.04378818       1.01854604 </v>
   <v>       3.27284194       1.23290311 </v>
   <v>       4.00839639       1.09212191 </v>
   <v>       3.83774736       1.11386156 </v>
   <v>       4.62849746       1.03514457 </v>
   <v>       6.01259458       1.00289439 </v>
   <v>       7.67549472       1.00013528 </v>
   <v>       8.26352084       1.00000244 </v>
   <v>       6.54568389       1.00096557 </v>
   <v>       5.04378818       1.01854662 </v>
   <v>       6.01259458       1.00300677 </v>
   <v>       5.66872853       1.00603908 </v>
   <v>       6.01259458       1.00289453 </v>
   <v>       6.94274620       1.00046659 </v>
   <v>       8.26352084       1.00000251 </v>
   <v>       8.26352084       1.00000244 </v>
   <v>       6.94274620       1.00045325 </v>
   <v>       8.01679277       1.00003374 </v>
   <v>       7.58777189       1.00015482 </v>
   <v>       7.67549472       1.00013529 </v>
   <v>       8.26352084       1.00000251 </v>
   <v>       8.01679277       1.00003374 </v>
   <v>       8.26352084       1.00000251 </v>
   <v>       7.67549472       1.00013529 </v>
   <v>       7.58777189       1.00015482 </v>
   <v>       6.01259458       1.00300677 </v>
   <v>       6.94274620       1.00045325 </v>
   <v>       8.26352084       1.00000244 </v>
   <v>       8.26352084       1.00000251 </v>
   <v>       6.94274620       1.00046659 </v>
   <v>       6.01259458       1.00289453 </v>
   <v>       5.66872853       1.00603908 </v>
   <v>       4.00839639       1.09212192 </v>
   <v>       5.04378818       1.01854661 </v>
   <v>       6.54568389       1.00096557 </v>
   <v>       8.26352084       1.00000244 </v>
   <v>       7.67549472       1.00013528 </v>
   <v>       6.01259458       1.00289439 </v>
   <v>       4.62849746       1.03514457 </v>
   <v>       3.83774736       1.11386157 </v>
   <v>       2.00419819       1.76117604 </v>
   <v>       3.27284194       1.23290307 </v>
   <v>       5.04378818       1.01854603 </v>
   <v>       6.94274620       1.00045312 </v>
   <v>       7.58777189       1.00015479 </v>
   <v>       5.66872853       1.00603649 </v>
   <v>       3.83774736       1.11385740 </v>
   <v>       2.31424873       1.59168325 </v>
   <v>       2.00419819       1.76117605 </v>
   <v>       2.31424873       1.59168325 </v>
   <v>       3.83774736       1.11385737 </v>
   <v>       5.66872853       1.00603648 </v>
   <v>       7.58777189       1.00015479 </v>
   <v>       6.94274620       1.00045312 </v>
   <v>       5.04378818       1.01854603 </v>
   <v>       3.27284194       1.23290306 </v>
   <v>       2.31424873       1.59168323 </v>
   <v>       2.00419819       1.76117197 </v>
   <v>       3.27284194       1.23287234 </v>
   <v>       5.04378818       1.01853826 </v>
   <v>       6.94274620       1.00045296 </v>
   <v>       7.58777189       1.00015475 </v>
   <v>       5.66872853       1.00603573 </v>
   <v>       3.83774736       1.11385181 </v>
   <v>       3.83774736       1.11386492 </v>
   <v>       3.27284194       1.23288764 </v>
   <v>       3.83774736       1.11384916 </v>
   <v>       5.17481748       1.01463661 </v>
   <v>       6.84564007       1.00055181 </v>
   <v>       6.84564007       1.00055197 </v>
   <v>       5.17481748       1.01464143 </v>
   <v>       5.66872853       1.00603966 </v>
   <v>       5.04378818       1.01854511 </v>
   <v>       5.17481748       1.01463943 </v>
   <v>       6.01259458       1.00289406 </v>
   <v>       7.31829707       1.00024416 </v>
   <v>       8.34414247       1.00000011 </v>
   <v>       6.84564007       1.00055218 </v>
   <v>       7.58777189       1.00015482 </v>
   <v>       6.94274620       1.00045335 </v>
   <v>       6.84564007       1.00055209 </v>
   <v>       7.31829707       1.00024416 </v>
   <v>       8.26352084       1.00000251 </v>
   <v>       6.94274620       1.00045320 </v>
   <v>       7.58777189       1.00015480 </v>
   <v>       8.26352084       1.00000251 </v>
   <v>       7.31829707       1.00024413 </v>
   <v>       6.84564007       1.00055205 </v>
   <v>       5.04378818       1.01854619 </v>
   <v>       5.66872853       1.00603577 </v>
   <v>       6.84564007       1.00055196 </v>
   <v>       8.34414247       1.00000011 </v>
   <v>       7.31829707       1.00024415 </v>
   <v>       6.01259458       1.00289354 </v>
   <v>       5.17481748       1.01464095 </v>
   <v>       3.27284194       1.23290327 </v>
   <v>       3.83774736       1.11385250 </v>
   <v>       5.17481748       1.01464106 </v>
   <v>       6.84564007       1.00055199 </v>
   <v>       6.84564007       1.00055199 </v>
   <v>       5.17481748       1.01464106 </v>
   <v>       3.83774736       1.11385249 </v>
   <v>       4.00839639       1.09212191 </v>
   <v>       3.83774736       1.11386156 </v>
   <v>       4.62849746       1.03514457 </v>
   <v>       6.01259458       1.00289438 </v>
   <v>       7.67549472       1.00013528 </v>
   <v>       8.26352084       1.00000244 </v>
   <v>       6.54568389       1.00096557 </v>
   <v>       5.04378818       1.01854660 </v>
   <v>       3.83774736       1.11386491 </v>
   <v>       3.27284194       1.23288764 </v>
   <v>       3.83774736       1.11384917 </v>
   <v>       5.17481748       1.01463661 </v>
   <v>       6.84564007       1.00055181 </v>
   <v>       6.84564007       1.00055197 </v>
   <v>       5.17481748       1.01464142 </v>
   <v>       4.62849746       1.03514716 </v>
   <v>       3.83774736       1.11384342 </v>
   <v>       4.00839639       1.09208750 </v>
   <v>       5.04378818       1.01853710 </v>
   <v>       6.54568389       1.00096491 </v>
   <v>       8.26352084       1.00000244 </v>
   <v>       7.67549472       1.00013525 </v>
   <v>       6.01259458       1.00289362 </v>
   <v>       6.01259458       1.00289478 </v>
   <v>       5.17481748       1.01463871 </v>
   <v>       5.04378818       1.01853902 </v>
   <v>       5.66872853       1.00603327 </v>
   <v>       6.84564007       1.00055163 </v>
   <v>       8.34414247       1.00000011 </v>
   <v>       7.31829707       1.00024417 </v>
   <v>       7.67549472       1.00013529 </v>
   <v>       6.84564007       1.00055216 </v>
   <v>       6.54568389       1.00096529 </v>
   <v>       6.84564007       1.00055167 </v>
   <v>       7.67549472       1.00013525 </v>
   <v>       8.26352084       1.00000244 </v>
   <v>       8.34414247       1.00000011 </v>
   <v>       8.26352084       1.00000244 </v>
   <v>       8.34414247       1.00000011 </v>
   <v>       6.54568389       1.00096547 </v>
   <v>       6.84564007       1.00055195 </v>
   <v>       7.67549472       1.00013527 </v>
   <v>       7.67549472       1.00013527 </v>
   <v>       6.84564007       1.00055195 </v>
   <v>       5.04378818       1.01854619 </v>
   <v>       5.17481748       1.01464095 </v>
   <v>       6.01259458       1.00289354 </v>
   <v>       7.31829707       1.00024415 </v>
   <v>       8.34414247       1.00000011 </v>
   <v>       6.84564007       1.00055196 </v>
   <v>       5.66872853       1.00603576 </v>
   <v>       6.01259458       1.00300677 </v>
   <v>       5.66872853       1.00603908 </v>
   <v>       6.01259458       1.00289453 </v>
   <v>       6.94274620       1.00046659 </v>
   <v>       8.26352084       1.00000251 </v>
   <v>       8.26352084       1.00000244 </v>
   <v>       6.94274620       1.00045325 </v>
   <v>       5.66872853       1.00603966 </v>
   <v>       5.04378818       1.01854512 </v>
   <v>       5.17481748       1.01463943 </v>
   <v>       6.01259458       1.00289407 </v>
   <v>       7.31829707       1.00024416 </v>
   <v>       8.34414247       1.00000011 </v>
   <v>       6.84564007       1.00055218 </v>
   <v>       6.01259458       1.00289478 </v>
   <v>       5.17481748       1.01463871 </v>
   <v>       5.04378818       1.01853902 </v>
   <v>       5.66872853       1.00603328 </v>
   <v>       6.84564007       1.00055163 </v>
   <v>       8.34414247       1.00000011 </v>
   <v>       7.31829707       1.00024417 </v>
   <v>       6.94274620       1.00046657 </v>
   <v>       6.01259458       1.00289333 </v>
   <v>       5.66872853       1.00603053 </v>
   <v>       6.01259458       1.00300139 </v>
   <v>       6.94274620       1.00045272 </v>
   <v>       8.26352084       1.00000244 </v>
   <v>       8.26352084       1.00000251 </v>
   <v>       8.26352084       1.00000251 </v>
   <v>       7.31829707       1.00024418 </v>
   <v>       6.84564007       1.00055163 </v>
   <v>       6.94274620       1.00045267 </v>
   <v>       7.58777189       1.00015471 </v>
   <v>       8.34414247       1.00000011 </v>
   <v>       8.26352084       1.00000244 </v>
   <v>       8.26352084       1.00000244 </v>
   <v>       8.34414247       1.00000011 </v>
   <v>       6.94274620       1.00045320 </v>
   <v>       6.84564007       1.00055205 </v>
   <v>       7.31829707       1.00024413 </v>
   <v>       8.26352084       1.00000251 </v>
   <v>       7.58777189       1.00015480 </v>
   <v>       8.01679277       1.00003374 </v>
   <v>       7.58777189       1.00015482 </v>
   <v>       7.67549472       1.00013529 </v>
   <v>       8.26352084       1.00000251 </v>
   <v>       7.58777189       1.00015482 </v>
   <v>       6.94274620       1.00045334 </v>
   <v>       6.84564007       1.00055209 </v>
   <v>       7.31829707       1.00024416 </v>
   <v>       8.26352084       1.00000251 </v>
   <v>       7.67549472       1.00013529 </v>
   <v>       6.84564007       1.00055216 </v>
   <v>       6.54568389       1.00096529 </v>
   <v>       6.84564007       1.00055167 </v>
   <v>       7.67549472       1.00013525 </v>
   <v>       8.26352084       1.00000251 </v>
   <v>       7.31829707       1.00024418 </v>
   <v>       6.84564007       1.00055163 </v>
   <v>       6.94274620       1.00045267 </v>
   <v>       7.58777189       1.00015471 </v>
   <v>       8.26352084       1.00000251 </v>
   <v>       7.67549472       1.00013524 </v>
   <v>       7.58777189       1.00015468 </v>
   <v>       8.01679277       1.00003370 </v>
   <v>       8.26352084       1.00000244 </v>
   <v>       8.34414247       1.00000011 </v>
   <v>       8.34414247       1.00000011 </v>
   <v>       8.26352084       1.00000244 </v>
   <v>       8.26352084       1.00000244 </v>
   <v>       8.34414247       1.00000011 </v>
   <v>       8.34414247       1.00000011 </v>
   <v>       8.26352084       1.00000244 </v>
   <v>       8.01679277       1.00003374 </v>
   <v>       8.26352084       1.00000251 </v>
   <v>       7.67549472       1.00013529 </v>
   <v>       7.58777189       1.00015482 </v>
   <v>       8.01679277       1.00003370 </v>
   <v>       7.58777189       1.00015469 </v>
   <v>       7.67549472       1.00013524 </v>
   <v>       8.26352084       1.00000251 </v>
   <v>       8.26352084       1.00000251 </v>
   <v>       7.58777189       1.00015471 </v>
   <v>       6.94274620       1.00045267 </v>
   <v>       6.84564007       1.00055163 </v>
   <v>       7.31829707       1.00024418 </v>
   <v>       7.67549472       1.00013529 </v>
   <v>       7.67549472       1.00013525 </v>
   <v>       6.84564007       1.00055167 </v>
   <v>       6.54568389       1.00096529 </v>
   <v>       6.84564007       1.00055216 </v>
   <v>       7.58777189       1.00015482 </v>
   <v>       8.26352084       1.00000251 </v>
   <v>       7.31829707       1.00024416 </v>
   <v>       6.84564007       1.00055209 </v>
   <v>       6.94274620       1.00045334 </v>
   <v>       6.01259458       1.00300677 </v>
   <v>       6.94274620       1.00045325 </v>
   <v>       8.26352084       1.00000244 </v>
   <v>       8.26352084       1.00000251 </v>
   <v>       6.94274620       1.00046659 </v>
   <v>       6.01259458       1.00289453 </v>
   <v>       5.66872853       1.00603909 </v>
   <v>       6.94274620       1.00045320 </v>
   <v>       7.58777189       1.00015480 </v>
   <v>       8.26352084       1.00000251 </v>
   <v>       7.31829707       1.00024413 </v>
   <v>       6.84564007       1.00055205 </v>
   <v>       8.26352084       1.00000244 </v>
   <v>       8.34414247       1.00000011 </v>
   <v>       8.26352084       1.00000244 </v>
   <v>       8.34414247       1.00000011 </v>
   <v>       8.26352084       1.00000251 </v>
   <v>       7.58777189       1.00015471 </v>
   <v>       6.94274620       1.00045267 </v>
   <v>       6.84564007       1.00055163 </v>
   <v>       7.31829707       1.00024418 </v>
   <v>       6.94274620       1.00046657 </v>
   <v>       8.26352084       1.00000251 </v>
   <v>       8.26352084       1.00000244 </v>
   <v>       6.94274620       1.00045272 </v>
   <v>       6.01259458       1.00300139 </v>
   <v>       5.66872853       1.00603053 </v>
   <v>       6.01259458       1.00289332 </v>
   <v>       6.01259458       1.00289478 </v>
   <v>       7.31829707       1.00024417 </v>
   <v>       8.34414247       1.00000011 </v>
   <v>       6.84564007       1.00055163 </v>
   <v>       5.66872853       1.00603327 </v>
   <v>       5.04378818       1.01853902 </v>
   <v>       5.17481748       1.01463871 </v>
   <v>       5.66872853       1.00603966 </v>
   <v>       6.84564007       1.00055218 </v>
   <v>       8.34414247       1.00000011 </v>
   <v>       7.31829707       1.00024416 </v>
   <v>       6.01259458       1.00289406 </v>
   <v>       5.17481748       1.01463943 </v>
   <v>       5.04378818       1.01854512 </v>
   <v>       4.00839639       1.09212192 </v>
   <v>       5.04378818       1.01854662 </v>
   <v>       6.54568389       1.00096557 </v>
   <v>       8.26352084       1.00000244 </v>
   <v>       7.67549472       1.00013528 </v>
   <v>       6.01259458       1.00289439 </v>
   <v>       4.62849746       1.03514457 </v>
   <v>       3.83774736       1.11386158 </v>
   <v>       5.04378818       1.01854618 </v>
   <v>       5.66872853       1.00603577 </v>
   <v>       6.84564007       1.00055196 </v>
   <v>       8.34414247       1.00000011 </v>
   <v>       7.31829707       1.00024415 </v>
   <v>       6.01259458       1.00289354 </v>
   <v>       5.17481748       1.01464094 </v>
   <v>       6.54568389       1.00096547 </v>
   <v>       6.84564007       1.00055195 </v>
   <v>       7.67549472       1.00013527 </v>
   <v>       7.67549472       1.00013527 </v>
   <v>       6.84564007       1.00055195 </v>
   <v>       8.26352084       1.00000244 </v>
   <v>       8.34414247       1.00000011 </v>
   <v>       8.34414247       1.00000011 </v>
   <v>       8.26352084       1.00000244 </v>
   <v>       7.67549472       1.00013529 </v>
   <v>       7.67549472       1.00013525 </v>
   <v>       6.84564007       1.00055167 </v>
   <v>       6.54568389       1.00096529 </v>
   <v>       6.84564007       1.00055216 </v>
   <v>       6.01259458       1.00289479 </v>
   <v>       7.31829707       1.00024417 </v>
   <v>       8.34414247       1.00000011 </v>
   <v>       6.84564007       1.00055163 </v>
   <v>       5.66872853       1.00603327 </v>
   <v>       5.04378818       1.01853901 </v>
   <v>       5.17481748       1.01463871 </v>
   <v>       4.62849746       1.03514716 </v>
   <v>       6.01259458       1.00289361 </v>
   <v>       7.67549472       1.00013526 </v>
   <v>       8.26352084       1.00000244 </v>
   <v>       6.54568389       1.00096491 </v>
   <v>       5.04378818       1.01853711 </v>
   <v>       4.00839639       1.09208749 </v>
   <v>       3.83774736       1.11384341 </v>
   <v>       3.83774736       1.11386492 </v>
   <v>       5.17481748       1.01464143 </v>
   <v>       6.84564007       1.00055197 </v>
   <v>       6.84564007       1.00055181 </v>
   <v>       5.17481748       1.01463661 </v>
   <v>       3.83774736       1.11384915 </v>
   <v>       3.27284194       1.23288764 </v>
   <v>       2.00419819       1.76117604 </v>
   <v>       3.27284194       1.23290313 </v>
   <v>       5.04378818       1.01854604 </v>
   <v>       6.94274620       1.00045312 </v>
   <v>       7.58777189       1.00015479 </v>
   <v>       5.66872853       1.00603648 </v>
   <v>       3.83774736       1.11385738 </v>
   <v>       2.31424873       1.59168325 </v>
   <v>       3.27284194       1.23290321 </v>
   <v>       3.83774736       1.11385250 </v>
   <v>       5.17481748       1.01464107 </v>
   <v>       6.84564007       1.00055199 </v>
   <v>       6.84564007       1.00055199 </v>
   <v>       5.17481748       1.01464106 </v>
   <v>       3.83774736       1.11385248 </v>
   <v>       5.04378818       1.01854618 </v>
   <v>       5.17481748       1.01464094 </v>
   <v>       6.01259458       1.00289354 </v>
   <v>       7.31829707       1.00024415 </v>
   <v>       8.34414247       1.00000011 </v>
   <v>       6.84564007       1.00055196 </v>
   <v>       5.66872853       1.00603576 </v>
   <v>       6.94274620       1.00045320 </v>
   <v>       6.84564007       1.00055205 </v>
   <v>       7.31829707       1.00024413 </v>
   <v>       8.26352084       1.00000251 </v>
   <v>       7.58777189       1.00015480 </v>
   <v>       7.58777189       1.00015482 </v>
   <v>       8.26352084       1.00000251 </v>
   <v>       7.31829707       1.00024416 </v>
   <v>       6.84564007       1.00055209 </v>
   <v>       6.94274620       1.00045334 </v>
   <v>       5.66872853       1.00603966 </v>
   <v>       6.84564007       1.00055218 </v>
   <v>       8.34414247       1.00000011 </v>
   <v>       7.31829707       1.00024416 </v>
   <v>       6.01259458       1.00289406 </v>
   <v>       5.17481748       1.01463943 </v>
   <v>       5.04378818       1.01854511 </v>
   <v>       3.83774736       1.11386493 </v>
   <v>       5.17481748       1.01464142 </v>
   <v>       6.84564007       1.00055197 </v>
   <v>       6.84564007       1.00055181 </v>
   <v>       5.17481748       1.01463661 </v>
   <v>       3.83774736       1.11384915 </v>
   <v>       3.27284194       1.23288762 </v>
   <v>       2.31424873       1.59168322 </v>
   <v>       3.83774736       1.11385180 </v>
   <v>       5.66872853       1.00603572 </v>
   <v>       7.58777189       1.00015475 </v>
   <v>       6.94274620       1.00045296 </v>
   <v>       5.04378818       1.01853826 </v>
   <v>       3.27284194       1.23287236 </v>
   <v>       2.00419819       1.76117198 </v>
  </varray>
  <dielectricfunction comment="1 + v P,  with REDUCIBLE POLARIZABILTY P=P_0 (1 -(v+f) P_0)^-1">
   <imag>
    <array>
     <dimension dim="1">gridpoints</dimension>
     <field>energy</field>
     <field>xx</field>
     <field>yy</field>
     <field>zz</field>
     <field>xy</field>
     <field>yz</field>
     <field>zx</field>
     <set>
      <r>     0.0000     0.0000     0.0000    -0.0000     0.0000    -0.0000    -0.0000 </r>
      <r>     0.2835     0.0914     0.0914     0.0914    -0.0000    -0.0000    -0.0000 </r>
      <r>     0.5667     0.1910     0.1910     0.1910    -0.0000    -0.0000    -0.0000 </r>
      <r>     0.8494     0.3093     0.3093     0.3093    -0.0000    -0.0000    -0.0000 </r>
      <r>     1.1313     0.4620     0.4620     0.4620    -0.0000    -0.0000    -0.0000 </r>
      <r>     1.4122     0.6781     0.6781     0.6781    -0.0000    -0.0000    -0.0000 </r>
      <r>     1.6919     1.0189     1.0189     1.0189    -0.0000    -0.0000    -0.0000 </r>
      <r>     1.9700     1.6435     1.6435     1.6435    -0.0000    -0.0000    -0.0000 </r>
      <r>     2.2466     3.1217     3.1217     3.1217    -0.0000     0.0000     0.0000 </r>
      <r>     2.5213     8.4906     8.4906     8.4906    -0.0000     0.0000     0.0000 </r>
      <r>     2.7941    20.3989    20.3989    20.3989    -0.0000     0.0000     0.0000 </r>
      <r>     3.0648    21.7329    21.7329    21.7329    -0.0000    -0.0000    -0.0000 </r>
      <r>     3.3333    17.8309    17.8309    17.8309    -0.0000    -0.0000    -0.0000 </r>
      <r>     3.5996    23.8880    23.8880    23.8880    -0.0000    -0.0000    -0.0000 </r>
      <r>     3.8635    44.3906    44.3906    44.3906    -0.0000     0.0000    -0.0000 </r>
      <r>     4.1251    33.7784    33.7784    33.7784    -0.0000     0.0000    -0.0000 </r>
      <r>     4.3844    15.0156    15.0156    15.0156    -0.0000     0.0000    -0.0000 </r>
[...]
       <r>   30.7194    0.0000 </r>
       <r>   31.0225    0.0000 </r>
       <r>   31.1846    0.0000 </r>
       <r>   33.6220    0.0000 </r>
       <r>   34.8554    0.0000 </r>
       <r>   35.3798    0.0000 </r>
       <r>   36.1112    0.0000 </r>
       <r>   36.4092    0.0000 </r>
       <r>   37.7240    0.0000 </r>
       <r>   39.1243    0.0000 </r>
       <r>   41.4446    0.0000 </r>
       <r>   42.7406    0.0000 </r>
       <r>   44.8929    0.0000 </r>
       <r>   45.1559    0.0000 </r>
       <r>   46.1696    0.0000 </r>
       <r>   47.5574    0.0000 </r>
       <r>   47.9337    0.0000 </r>
       <r>   49.2403    0.0000 </r>
       <r>   49.8311    0.0000 </r>
       <r>   50.2781    0.0000 </r>
       <r>   51.4412    0.0000 </r>
       <r>   53.2777    0.0000 </r>
       <r>   54.1144    0.0000 </r>
       <r>   55.5298    0.0000 </r>
       <r>   56.3330    0.0000 </r>
       <r>   56.8105    0.0000 </r>
       <r>   57.6892    0.0000 </r>
       <r>   58.8765    0.0000 </r>
       <r>   60.1288    0.0000 </r>
       <r>   60.3869    0.0000 </r>
       <r>   60.9133    0.0000 </r>
       <r>   61.1588    0.0000 </r>
       <r>   61.9628    0.0000 </r>
       <r>   62.5333    0.0000 </r>
       <r>   63.3600    0.0000 </r>
       <r>   64.8084    0.0000 </r>
       <r>   65.4474    0.0000 </r>
       <r>   67.2544    0.0000 </r>
       <r>   67.4685    0.0000 </r>
       <r>   68.1660    0.0000 </r>
       <r>   69.1796    0.0000 </r>
       <r>   69.2938    0.0000 </r>
       <r>   70.7969    0.0000 </r>
      </set>
      <set comment="kpoint 16">
       <r>   -2.5636    1.0000 </r>
       <r>   -2.5636    1.0000 </r>
       <r>    1.3767    1.0000 </r>
       <r>    1.3767    1.0000 </r>
       <r>    8.5291    0.0000 </r>
       <r>    8.5291    0.0000 </r>
       <r>   12.6461    0.0000 </r>
       <r>   12.6461    0.0000 </r>
       <r>   16.4780    0.0000 </r>
       <r>   16.4780    0.0000 </r>
       <r>   18.8471    0.0000 </r>
       <r>   18.8471    0.0000 </r>
       <r>   22.2173    0.0000 </r>
       <r>   22.2173    0.0000 </r>
       <r>   22.8579    0.0000 </r>
       <r>   22.8579    0.0000 </r>
       <r>   24.1378    0.0000 </r>
       <r>   24.1378    0.0000 </r>
       <r>   26.3583    0.0000 </r>
       <r>   26.3583    0.0000 </r>
       <r>   28.4184    0.0000 </r>
       <r>   28.4184    0.0000 </r>
       <r>   30.1161    0.0000 </r>
       <r>   30.1161    0.0000 </r>
       <r>   35.1083    0.0000 </r>
       <r>   35.1083    0.0000 </r>
       <r>   36.1112    0.0000 </r>
       <r>   36.1112    0.0000 </r>
       <r>   37.2576    0.0000 </r>
       <r>   37.2576    0.0000 </r>
       <r>   42.1256    0.0000 </r>
       <r>   42.1256    0.0000 </r>
       <r>   42.7471    0.0000 </r>
       <r>   42.7471    0.0000 </r>
       <r>   45.6291    0.0000 </r>
       <r>   45.6291    0.0000 </r>
       <r>   47.4488    0.0000 </r>
       <r>   47.4488    0.0000 </r>
       <r>   48.2999    0.0000 </r>
       <r>   48.2999    0.0000 </r>
       <r>   52.1815    0.0000 </r>
       <r>   52.1815    0.0000 </r>
       <r>   53.8364    0.0000 </r>
       <r>   53.8364    0.0000 </r>
       <r>   55.7923    0.0000 </r>
       <r>   55.7923    0.0000 </r>
       <r>   56.0809    0.0000 </r>
       <r>   56.0809    0.0000 </r>
       <r>   59.6656    0.0000 </r>
       <r>   59.6656    0.0000 </r>
       <r>   60.8383    0.0000 </r>
       <r>   60.8383    0.0000 </r>
       <r>   62.5434    0.0000 </r>
       <r>   62.5434    0.0000 </r>
       <r>   63.7910    0.0000 </r>
       <r>   63.7910    0.0000 </r>
       <r>   64.8038    0.0000 </r>
       <r>   64.8038    0.0000 </r>
       <r>   67.6099    0.0000 </r>
       <r>   67.6099    0.0000 </r>
       <r>   69.1071    0.0000 </r>
       <r>   69.1071    0.0000 </r>
       <r>   70.4148    0.0000 </r>
       <r>   70.4148    0.0000 </r>
      </set>
     </set>
    </set>
   </array>
  </eigenvalues>
  <separator name="orbital magnetization" >
   <v name="MAGDIPOLOUT">      0.00000000      0.00000000      0.00000000</v>
  </separator>
  <dos>
   <i name="efermi">      5.54783651 </i>
   <total>
    <array>
     <dimension dim="1">gridpoints</dimension>
     <dimension dim="2">spin</dimension>
     <field>energy</field>
     <field>total</field>
     <field>integrated</field>
     <set>
      <set comment="spin 1">
       <r>   -10.8894     0.0000     0.0000 </r>
       <r>   -10.5912     0.0000     0.0000 </r>
       <r>   -10.2930     0.0000     0.0000 </r>
       <r>    -9.9949     0.0000     0.0000 </r>
       <r>    -9.6967     0.0000     0.0000 </r>
       <r>    -9.3985     0.0000     0.0000 </r>
       <r>    -9.1003     0.0000     0.0000 </r>
       <r>    -8.8021     0.0000     0.0000 </r>
       <r>    -8.5040     0.0000     0.0000 </r>
       <r>    -8.2058     0.0000     0.0000 </r>
       <r>    -7.9076     0.0000     0.0000 </r>
       <r>    -7.6094     0.0000     0.0000 </r>
       <r>    -7.3112     0.0000     0.0000 </r>
       <r>    -7.0130     0.0000     0.0000 </r>
       <r>    -6.7149     0.0310     0.0092 </r>
       <r>    -6.4167     0.2319     0.0784 </r>
       <r>    -6.1185     0.2028     0.1389 </r>
       <r>    -5.8203     0.3597     0.2461 </r>
       <r>    -5.5221     0.5079     0.3976 </r>
       <r>    -5.2240     0.4987     0.5463 </r>
       <r>    -4.9258     0.1090     0.5788 </r>
       <r>    -4.6276     0.8303     0.8264 </r>
       <r>    -4.3294     1.3648     1.2336 </r>
       <r>    -4.0312     0.2413     1.3056 </r>
       <r>    -3.7331     0.5917     1.4820 </r>
       <r>    -3.4349     1.2713     1.8610 </r>
       <r>    -3.1367     0.0000     1.8611 </r>
       <r>    -2.8385     0.0000     1.8611 </r>
       <r>    -2.5403     0.7415     2.0822 </r>
       <r>    -2.2421     0.1901     2.1389 </r>
       <r>    -1.9440     0.0055     2.1405 </r>
       <r>    -1.6458     1.0636     2.4577 </r>
       <r>    -1.3476     1.6607     2.9529 </r>
       <r>    -1.0494     0.0029     2.9537 </r>
       <r>    -0.7512     0.7452     3.1759 </r>
       <r>    -0.4531     0.7379     3.3960 </r>
       <r>    -0.1549     0.2554     3.4721 </r>
       <r>     0.1433     0.1649     3.5214 </r>
       <r>     0.4415     0.0215     3.5278 </r>
       <r>     0.7397     1.1134     3.8598 </r>
       <r>     1.0378     0.5734     4.0308 </r>
       <r>     1.3360     0.3650     4.1396 </r>
       <r>     1.6342     2.4198     4.8611 </r>
       <r>     1.9324     0.0090     4.8638 </r>
       <r>     2.2306     0.9697     5.1529 </r>
       <r>     2.5288     2.0872     5.7753 </r>
       <r>     2.8269     1.7782     6.3055 </r>
       <r>     3.1251     1.0029     6.6046 </r>
       <r>     3.4233     1.8435     7.1543 </r>
       <r>     3.7215     0.0150     7.1589 </r>
       <r>     4.0197     1.3585     7.5640 </r>
       <r>     4.3178     0.4996     7.7130 </r>
       <r>     4.6160     0.3119     7.8060 </r>
       <r>     4.9142     0.5575     7.9722 </r>
       <r>     5.2124     0.0825     7.9968 </r>
       <r>     5.5106     0.0107     8.0000 </r>
       <r>     5.8087     0.0000     8.0000 </r>
       <r>     6.1069     0.0000     8.0000 </r>
       <r>     6.4051     0.0998     8.0298 </r>
       <r>     6.7033     0.2777     8.1126 </r>
       <r>     7.0015     0.7404     8.3333 </r>
       <r>     7.2997     0.0576     8.3505 </r>
       <r>     7.5978     0.6573     8.5465 </r>
       <r>     7.8960     1.7717     9.0748 </r>
       <r>     8.1942     0.1287     9.1132 </r>
       <r>     8.4924     1.5132     9.5644 </r>
       <r>     8.7906     1.8022    10.1018 </r>
       <r>     9.0887     0.5111    10.2543 </r>
       <r>     9.3869     1.4547    10.6880 </r>
       <r>     9.6851     2.5326    11.4432 </r>
       <r>     9.9833     1.0634    11.7603 </r>
       <r>    10.2815     3.1560    12.7013 </r>
       <r>    10.5796     1.5788    13.1722 </r>
       <r>    10.8778     0.1056    13.2037 </r>
       <r>    11.1760     0.7452    13.4259 </r>
       <r>    11.4742     0.2187    13.4911 </r>
       <r>    11.7724     0.7750    13.7222 </r>
       <r>    12.0706     1.1177    14.0555 </r>
       <r>    12.3687     0.9008    14.3242 </r>
       <r>    12.6669     1.6859    14.8270 </r>
       <r>    12.9651     0.6478    15.0202 </r>
       <r>    13.2633     3.1571    15.9615 </r>
       <r>    13.5615     3.0276    16.8643 </r>
       <r>    13.8596     0.6226    17.0500 </r>
       <r>    14.1578     0.1754    17.1023 </r>
       <r>    14.4560     0.1888    17.1586 </r>
       <r>    14.7542     0.4691    17.2985 </r>
       <r>    15.0524     1.7224    17.8121 </r>
       <r>    15.3505     2.4336    18.5377 </r>
       <r>    15.6487     0.1616    18.5859 </r>
       <r>    15.9469     1.4520    19.0189 </r>
       <r>    16.2451     1.2159    19.3815 </r>
       <r>    16.5433     2.6085    20.1594 </r>
       <r>    16.8415     0.7546    20.3844 </r>
       <r>    17.1396     2.0318    20.9902 </r>
       <r>    17.4378     0.3687    21.1002 </r>
       <r>    17.7360     1.6844    21.6024 </r>
       <r>    18.0342     0.8984    21.8704 </r>
       <r>    18.3324     0.9322    22.1483 </r>
       <r>    18.6305     1.7128    22.6591 </r>
       <r>    18.9287     3.9345    23.8324 </r>
       <r>    19.2269     2.0173    24.4343 </r>
       <r>    19.5251     1.7967    24.9701 </r>
       <r>    19.8233     0.1636    25.0188 </r>
       <r>    20.1214     0.3772    25.1313 </r>
       <r>    20.4196     1.2669    25.5091 </r>
       <r>    20.7178     1.9983    26.1049 </r>
       <r>    21.0160     0.4242    26.2314 </r>
       <r>    21.3142     1.4840    26.6739 </r>
       <r>    21.6123     1.7592    27.1985 </r>
       <r>    21.9105     2.3314    27.8936 </r>
       <r>    22.2087     2.9855    28.7839 </r>
       <r>    22.5069     0.9747    29.0746 </r>
       <r>    22.8051     2.4769    29.8131 </r>
       <r>    23.1033     1.2180    30.1763 </r>
       <r>    23.4014     0.5717    30.3468 </r>
       <r>    23.6996     3.5154    31.3951 </r>
       <r>    23.9978     1.5444    31.8556 </r>
       <r>    24.2960     0.9636    32.1429 </r>
       <r>    24.5942     2.1684    32.7895 </r>
       <r>    24.8923     2.1231    33.4226 </r>
       <r>    25.1905     2.0222    34.0256 </r>
       <r>    25.4887     1.2246    34.3909 </r>
       <r>    25.7869     4.2449    35.6566 </r>
       <r>    26.0851     1.5327    36.1137 </r>
       <r>    26.3832     2.0196    36.7159 </r>
       <r>    26.6814     0.5493    36.8797 </r>
       <r>    26.9796     3.1024    37.8048 </r>
       <r>    27.2778     0.7121    38.0171 </r>
       <r>    27.5760     1.0287    38.3239 </r>
       <r>    27.8742     2.5132    39.0735 </r>
       <r>    28.1723     1.1648    39.4210 </r>
       <r>    28.4705     2.3724    40.1284 </r>
       <r>    28.7687     1.0441    40.4397 </r>
       <r>    29.0669     1.7343    40.9569 </r>
       <r>    29.3651     2.6988    41.7617 </r>
       <r>    29.6632     0.0681    41.7820 </r>
       <r>    29.9614     1.5446    42.2426 </r>
       <r>    30.2596     1.3751    42.6526 </r>
       <r>    30.5578     0.7410    42.8736 </r>
       <r>    30.8560     1.9190    43.4458 </r>
       <r>    31.1541     0.9789    43.7377 </r>
       <r>    31.4523     2.0411    44.3463 </r>
       <r>    31.7505     2.1592    44.9902 </r>
       <r>    32.0487     3.1215    45.9210 </r>
       <r>    32.3469     1.5670    46.3882 </r>
       <r>    32.6451     2.1470    47.0284 </r>
       <r>    32.9432     2.4508    47.7592 </r>
       <r>    33.2414     0.0312    47.7685 </r>
       <r>    33.5396     0.9962    48.0656 </r>
       <r>    33.8378     2.4814    48.8055 </r>
       <r>    34.1360     0.7342    49.0244 </r>
       <r>    34.4341     1.5557    49.4883 </r>
       <r>    34.7323     2.7234    50.3003 </r>
       <r>    35.0305     2.9759    51.1877 </r>
       <r>    35.3287     2.5991    51.9628 </r>
       <r>    35.6269     1.7953    52.4981 </r>
       <r>    35.9250     1.0621    52.8148 </r>
       <r>    36.2232     1.6555    53.3085 </r>
       <r>    36.5214     1.5282    53.7645 </r>
       <r>    36.8196     1.6915    54.2691 </r>
       <r>    37.1178     2.0322    54.8750 </r>
       <r>    37.4160     3.2376    55.8404 </r>
       <r>    37.7141     3.2905    56.8216 </r>
       <r>    38.0123     2.0018    57.4185 </r>
       <r>    38.3105     0.8124    57.6611 </r>
       <r>    38.6087     0.8866    57.9255 </r>
       <r>    38.9069     0.2225    57.9918 </r>
       <r>    39.2050     4.8019    59.4237 </r>
       <r>    39.5032     1.3318    59.8212 </r>
       <r>    39.8014     2.7140    60.6305 </r>
       <r>    40.0996     0.6249    60.8168 </r>
       <r>    40.3978     0.6272    61.0038 </r>
       <r>    40.6959     3.2457    61.9716 </r>
       <r>    40.9941     1.4247    62.3965 </r>
       <r>    41.2923     0.7422    62.6178 </r>
       <r>    41.5905     1.1274    62.9539 </r>
       <r>    41.8887     1.9930    63.5483 </r>
       <r>    42.1869     2.2592    64.2220 </r>
       <r>    42.4850     2.3238    64.9149 </r>
       <r>    42.7832     2.5141    65.6646 </r>
       <r>    43.0814     1.9043    66.2324 </r>
       <r>    43.3796     1.9820    66.8234 </r>
       <r>    43.6778     0.5877    66.9991 </r>
       <r>    43.9759     1.1788    67.3506 </r>
       <r>    44.2741     3.0666    68.2650 </r>
       <r>    44.5723     2.1717    68.9126 </r>
       <r>    44.8705     1.3359    69.3110 </r>
       <r>    45.1687     1.2990    69.6983 </r>
       <r>    45.4668     2.8014    70.5336 </r>
       <r>    45.7650     4.0615    71.7448 </r>
       <r>    46.0632     1.2092    72.1057 </r>
       <r>    46.3614     1.3900    72.5202 </r>
       <r>    46.6596     1.5223    72.9741 </r>
       <r>    46.9578     1.6259    73.4590 </r>
       <r>    47.2559     0.6973    73.6669 </r>
       <r>    47.5541     4.4419    74.9915 </r>
       <r>    47.8523     2.5768    75.7605 </r>
       <r>    48.1505     1.4501    76.1929 </r>
       <r>    48.4487     2.5104    76.9414 </r>
       <r>    48.7468     1.3788    77.3526 </r>
       <r>    49.0450     2.2194    78.0143 </r>
       <r>    49.3432     4.2717    79.2881 </r>
       <r>    49.6414     0.6161    79.4722 </r>
       <r>    49.9396     1.9811    80.0630 </r>
       <r>    50.2377     3.7119    81.1700 </r>
       <r>    50.5359     0.9294    81.4472 </r>
       <r>    50.8341     1.5741    81.9165 </r>
       <r>    51.1323     0.5207    82.0719 </r>
       <r>    51.4305     3.4754    83.1082 </r>
       <r>    51.7287     2.2299    83.7732 </r>
       <r>    52.0268     1.2091    84.1337 </r>
       <r>    52.3250     3.3356    85.1283 </r>
       <r>    52.6232     1.2745    85.5084 </r>
       <r>    52.9214     2.4027    86.2248 </r>
       <r>    53.2196     2.7489    87.0445 </r>
       <r>    53.5177     3.0094    87.9419 </r>
       <r>    53.8159     3.4451    88.9693 </r>
       <r>    54.1141     3.5954    90.0414 </r>
       <r>    54.4123     0.4848    90.1859 </r>
       <r>    54.7105     0.9261    90.4621 </r>
       <r>    55.0086     1.5352    90.9198 </r>
       <r>    55.3068     1.0570    91.2350 </r>
       <r>    55.6050     3.4781    92.2721 </r>
       <r>    55.9032     3.4298    93.2951 </r>
       <r>    56.2014     2.4655    94.0305 </r>
       <r>    56.4996     2.0886    94.6533 </r>
       <r>    56.7977     1.8516    95.2054 </r>
       <r>    57.0959     0.9879    95.5000 </r>
       <r>    57.3941     0.0931    95.5278 </r>
       <r>    57.6923     0.8191    95.7720 </r>
       <r>    57.9905     2.4101    96.4907 </r>
       <r>    58.2886     1.7690    97.0181 </r>
       <r>    58.5868     2.6565    97.8103 </r>
       <r>    58.8850     3.9889    98.9998 </r>
       <r>    59.1832     2.0299    99.6052 </r>
       <r>    59.4814     1.4792   100.0463 </r>
       <r>    59.7795     1.6299   100.5323 </r>
       <r>    60.0777     2.4860   101.2737 </r>
       <r>    60.3759     2.1583   101.9175 </r>
       <r>    60.6741     3.3214   102.9079 </r>
       <r>    60.9723     2.5877   103.6795 </r>
       <r>    61.2705     4.4548   105.0079 </r>
       <r>    61.5686     0.3103   105.1006 </r>
       <r>    61.8668     1.7407   105.6197 </r>
       <r>    62.1650     1.4454   106.0507 </r>
       <r>    62.4632     2.0260   106.6549 </r>
       <r>    62.7614     3.7886   107.7847 </r>
       <r>    63.0595     2.3987   108.4999 </r>
       <r>    63.3577     3.9193   109.6687 </r>
       <r>    63.6559     1.4886   110.1127 </r>
       <r>    63.9541     4.0951   111.3338 </r>
       <r>    64.2523     2.0554   111.9467 </r>
       <r>    64.5504     1.7623   112.4723 </r>
       <r>    64.8486     4.8357   113.9142 </r>
       <r>    65.1468     2.6029   114.6903 </r>
       <r>    65.4450     1.7460   115.2110 </r>
       <r>    65.7432     1.7091   115.7206 </r>
       <r>    66.0414     2.1409   116.3590 </r>
       <r>    66.3395     0.3967   116.4774 </r>
       <r>    66.6377     1.5141   116.9289 </r>
       <r>    66.9359     1.9907   117.5226 </r>
       <r>    67.2341     2.9390   118.3990 </r>
       <r>    67.5323     4.2604   119.6693 </r>
       <r>    67.8304     3.1977   120.6229 </r>
       <r>    68.1286     0.8294   120.8703 </r>
       <r>    68.4268     2.3939   121.5841 </r>
       <r>    68.7250     0.8757   121.8453 </r>
       <r>    69.0232     2.3601   122.5491 </r>
       <r>    69.3213     6.3724   124.4492 </r>
       <r>    69.6195     3.2501   125.4183 </r>
       <r>    69.9177     0.9885   125.7131 </r>
       <r>    70.2159     1.5816   126.1848 </r>
       <r>    70.5141     2.1893   126.8376 </r>
       <r>    70.8123     2.2353   127.5041 </r>
       <r>    71.1104     0.7982   127.7421 </r>
       <r>    71.4086     0.7573   127.9679 </r>
       <r>    71.7068     0.0144   127.9722 </r>
       <r>    72.0050     0.0000   127.9722 </r>
       <r>    72.3032     0.0000   127.9722 </r>
       <r>    72.6013     0.0000   127.9722 </r>
       <r>    72.8995     0.0000   127.9722 </r>
       <r>    73.1977     0.0000   127.9722 </r>
       <r>    73.4959     0.0000   127.9722 </r>
       <r>    73.7941     0.0000   127.9722 </r>
       <r>    74.0922     0.0000   127.9722 </r>
       <r>    74.3904     0.0001   127.9723 </r>
       <r>    74.6886     0.0931   128.0000 </r>
       <r>    74.9868     0.0000   128.0000 </r>
       <r>    75.2850     0.0000   128.0000 </r>
       <r>    75.5831     0.0000   128.0000 </r>
       <r>    75.8813     0.0000   128.0000 </r>
       <r>    76.1795     0.0000   128.0000 </r>
       <r>    76.4777     0.0000   128.0000 </r>
       <r>    76.7759     0.0000   128.0000 </r>
       <r>    77.0741     0.0000   128.0000 </r>
       <r>    77.3722     0.0000   128.0000 </r>
       <r>    77.6704     0.0000   128.0000 </r>
       <r>    77.9686     0.0000   128.0000 </r>
       <r>    78.2668     0.0000   128.0000 </r>
       <r>    78.5650     0.0000   128.0000 </r>
      </set>
     </set>
    </array>
   </total>
  </dos>
 </calculation>
 <structure name="finalpos" >
  <crystal>
   <varray name="basis" >
    <v>       2.71500000       2.71500000       0.00000000 </v>
    <v>       0.00000000       2.71500000       2.71500000 </v>
    <v>       2.71500000       0.00000000       2.71500000 </v>
   </varray>
   <i name="volume">     40.02575175 </i>
   <varray name="rec_basis" >
    <v>       0.18416206       0.18416206      -0.18416206 </v>
    <v>      -0.18416206       0.18416206       0.18416206 </v>
    <v>       0.18416206      -0.18416206       0.18416206 </v>
   </varray>
  </crystal>
  <varray name="positions" >
   <v>       0.00000000       0.00000000       0.00000000 </v>
   <v>       0.25000000       0.25000000       0.25000000 </v>
  </varray>
 </structure>
</modeling>
