cd Si DFT ground state                  
   5.4299999999999997     
     0.500000    0.500000    0.000000
     0.000000    0.500000    0.500000
     0.500000    0.000000    0.500000
   Si
     2
Direct
   0.000000  0.000000  0.000000
   0.250000  0.250000  0.250000

   40   40   40
 -.64414     0.85407E-01  2.1214      5.0541      8.3393      11.439      13.931      15.561      16.248      16.063    
  15.199      13.919      12.504      11.157      9.9592      8.9483      8.1346      7.5130      7.0748      6.8137    
  6.7268      6.8137      7.0748      7.5130      8.1346      8.9483      9.9592      11.157      12.504      13.919    
  15.199      16.063      16.248      15.561      13.931      11.439      8.3393      5.0541      2.1214     0.85408E-01
 0.85407E-01  1.5754      4.2382      7.5437      10.905      13.819      15.944      17.122      17.362      16.808    
  15.697      14.312      12.910      11.619      10.493      9.5567      8.8140      8.2606      7.8924      7.7080    
  7.7080      7.8924      8.2606      8.8140      9.5567      10.493      11.619      12.910      14.312      15.697    
  16.808      17.362      17.122      15.944      13.819      10.905      7.5437      4.2382      1.5754     0.85403E-01
  2.1214      4.2382      7.2610      10.608      13.723      16.189      17.771      18.409      18.189      17.310    
  16.036      14.641      13.305      12.101      11.067      10.216      9.5503      9.0714      8.7814      8.6841    
  8.7814      9.0714      9.5503      10.216      11.067      12.101      13.305      14.641      16.036      17.310    
  18.189      18.409      17.771      16.189      13.723      10.608      7.2610      4.2382      2.1214      1.3593    
  5.0541      7.5437      10.608      13.686      16.310      18.174      19.146      19.254      18.645      17.551    
  16.236      14.918      13.688      12.595      11.662      10.899      10.314      9.9142      9.7109      9.7109    
  9.9142      10.314      10.899      11.662      12.595      13.688      14.918      16.236      17.551      18.645    
  19.254      19.146      18.174      16.310      13.686      10.608      7.5437      5.0542      3.6537      3.6537    
  8.3393      10.905      13.723      16.310      18.311      19.529      19.929      19.602      18.739      17.577    
  16.342      15.150      14.051      13.078      12.246      11.569      11.063      10.748      10.641      10.748    
  11.063      11.569      12.246      13.078      14.051      15.150      16.342      17.577      18.739      19.602    
  19.929      19.529      18.310      16.310      13.723      10.905      8.3393      6.5335      5.8820      6.5335    
  11.439      13.819      16.189      18.174      19.529      20.160      20.103      19.497      18.546      17.464    
  16.375      15.334      14.374      13.515      12.774      12.174      11.745      11.520      11.520      11.745    
  12.174      12.774      13.515      14.374      15.334      16.375      17.464      18.546      19.497      20.103    
  20.160      19.529      18.174      16.189      13.819      11.439      9.4970      8.4025      8.4025      9.4970    
  13.931      15.944      17.771      19.146      19.929      20.103      19.758      19.055      18.182      17.261    
  16.342      15.456      14.623      13.856      13.181      12.641      12.289      12.166      12.289      12.641    
  13.181      13.856      14.623      15.456      16.342      17.261      18.182      19.055      19.758      20.103    
  19.929      19.146      17.771      15.944      13.931      12.090      10.792      10.324      10.792      12.090    
  15.561      17.122      18.409      19.254      19.602      19.497      19.055      18.430      17.726      16.987    
  16.236      15.487      14.742      14.027      13.395      12.914      12.654      12.654      12.914      13.395    
  14.027      14.742      15.487      16.236      16.987      17.726      18.430      19.055      19.497      19.602    
  19.254      18.409      17.122      15.561      13.983      12.694      11.967      11.967      12.694      13.983    
  16.248      17.362      18.189      18.645      18.739      18.546      18.182      17.726      17.209      16.646    
  16.036      15.371      14.666      13.976      13.384      12.981      12.838      12.981      13.384      13.976    
  14.666      15.371      16.036      16.646      17.209      17.726      18.182      18.546      18.739      18.645    
  18.189      17.362      16.248      15.011      13.877      13.078      12.790      13.078      13.877      15.011    
  16.063      16.808      17.310      17.551      17.577      17.464      17.261      16.987      16.646      16.225    
  15.697      15.064      14.371      13.705      13.174      12.879      12.879      13.174      13.705      14.371    
  15.064      15.697      16.225      16.646      16.987      17.261      17.464      17.577      17.551      17.310    
  16.808      16.063      15.164      14.256      13.515      13.098      13.098      13.515      14.256      15.164    
  15.199      15.697      16.036      16.236      16.342      16.375      16.342      16.236      16.036      15.697    
  15.199      14.570      13.888      13.271      12.838      12.682      12.838      13.271      13.888      14.570    
  15.199      15.697      16.036      16.236      16.342      16.375      16.342      16.236      16.036      15.697    
  15.199      14.570      13.888      13.271      12.838      12.682      12.838      13.271      13.888      14.570    
  13.919      14.312      14.641      14.918      15.150      15.334      15.456      15.487      15.371      15.064    
  14.570      13.948      13.308      12.780      12.482      12.482      12.780      13.308      13.948      14.570    
  15.064      15.371      15.487      15.456      15.334      15.150      14.918      14.641      14.312      13.919    
  13.454      12.945      12.456      12.065      11.847      11.847      12.065      12.456      12.945      13.454    
  12.504      12.910      13.305      13.688      14.051      14.374      14.623      14.742      14.666      14.371    
  13.888      13.308      12.755      12.358      12.214      12.358      12.755      13.308      13.888      14.371    
  14.666      14.742      14.623      14.374      14.051      13.688      13.305      12.910      12.504      12.087    
  11.667      11.265      10.925      10.694      10.612      10.694      10.925      11.265      11.667      12.087    
  11.157      11.619      12.101      12.595      13.078      13.515      13.856      14.027      13.976      13.705    
  13.271      12.780      12.358      12.114      12.114      12.358      12.780      13.271      13.705      13.976    
  14.027      13.856      13.514      13.078      12.595      12.101      11.619      11.157      10.718      10.307    
  9.9323      9.6150      9.3806      9.2552      9.2552      9.3806      9.6150      9.9323      10.307      10.718    
  9.9592      10.493      11.067      11.662      12.246      12.774      13.181      13.395      13.384      13.174    
  12.838      12.482      12.214      12.114      12.214      12.482      12.838      13.174      13.384      13.395    
  13.181      12.774      12.246      11.662      11.067      10.493      9.9592      9.4729      9.0364      8.6527    
  8.3296      8.0809      7.9227      7.8683      7.9227      8.0809      8.3296      8.6527      9.0364      9.4729    
  8.9483      9.5567      10.216      10.899      11.569      12.174      12.641      12.914      12.981      12.879    
  12.682      12.482      12.358      12.358      12.482      12.682      12.879      12.981      12.914      12.641    
  12.174      11.569      10.899      10.216      9.5567      8.9483      8.4033      7.9253      7.5143      7.1715    
  6.9021      6.7146      6.6180      6.6180      6.7146      6.9021      7.1715      7.5143      7.9253      8.4033    
  8.1346      8.8140      9.5503      10.314      11.063      11.745      12.289      12.654      12.838      12.879    
  12.838      12.780      12.755      12.780      12.838      12.879      12.838      12.654      12.289      11.745    
  11.063      10.314      9.5503      8.8140      8.1346      7.5289      7.0026      6.5550      6.1837      5.8885    
  5.6721      5.5392      5.4943      5.5392      5.6721      5.8885      6.1837      6.5550      7.0026      7.5289    
  7.5130      8.2606      9.0714      9.9142      10.748      11.520      12.166      12.654      12.981      13.174    
  13.271      13.308      13.308      13.271      13.174      12.981      12.654      12.166      11.520      10.748    
  9.9142      9.0714      8.2606      7.5130      6.8475      6.2711      5.7830      5.3790      5.0550      4.8096    
  4.6440      4.5603      4.5603      4.6440      4.8096      5.0550      5.3790      5.7830      6.2711      6.8475    
  7.0748      7.8924      8.7814      9.7109      10.641      11.520      12.289      12.914      13.384      13.705    
  13.888      13.948      13.888      13.705      13.384      12.914      12.289      11.520      10.641      9.7109    
  8.7814      7.8924      7.0748      6.3481      5.7199      5.1891      4.7498      4.3955      4.1215      3.9256    
  3.8076      3.7682      3.8076      3.9256      4.1215      4.3955      4.7498      5.1891      5.7199      6.3481    
  6.8137      7.7080      8.6841      9.7109      10.748      11.745      12.641      13.395      13.976      14.371    
  14.570      14.570      14.371      13.976      13.395      12.641      11.745      10.748      9.7109      8.6841    
  7.7080      6.8137      6.0204      5.3357      4.7581      4.2803      3.8936      3.5905      3.3660      3.2171    
  3.1429      3.1429      3.2171      3.3660      3.5905      3.8936      4.2803      4.7581      5.3357      6.0203    
  6.7268      7.7080      8.7814      9.9142      11.063      12.174      13.181      14.027      14.666      15.064    
  15.199      15.064      14.666      14.027      13.181      12.174      11.063      9.9142      8.7814      7.7080    
  6.7268      5.8577      5.1086      4.4772      3.9552      3.5320      3.1976      2.9442      2.7664      2.6609    
  2.6260      2.6609      2.7664      2.9442      3.1976      3.5320      3.9552      4.4772      5.1086      5.8577    
  6.8137      7.8924      9.0714      10.314      11.569      12.774      13.856      14.742      15.371      15.697    
  15.697      15.371      14.742      13.856      12.774      11.569      10.314      9.0714      7.8924      6.8137    
  5.8577      5.0334      4.3384      3.7638      3.2973      2.9268      2.6421      2.4352      2.3005      2.2340    
  2.2340      2.3005      2.4352      2.6421      2.9268      3.2972      3.7638      4.3384      5.0334      5.8577    
  7.0748      8.2606      9.5503      10.899      12.246      13.515      14.623      15.487      16.036      16.225    
  16.036      15.487      14.623      13.514      12.246      10.899      9.5503      8.2606      7.0748      6.0204    
  5.1086      4.3384      3.7005      3.1816      2.7678      2.4468      2.2083      2.0440      1.9480      1.9164    
  1.9480      2.0440      2.2083      2.4468      2.7678      3.1816      3.7005      4.3384      5.1086      6.0204    
  7.5130      8.8140      10.216      11.662      13.078      14.374      15.456      16.236      16.646      16.646    
  16.236      15.456      14.374      13.078      11.662      10.216      8.8140      7.5130      6.3481      5.3357    
  4.4772      3.7638      3.1816      2.7153      2.3509      2.0757      1.8793      1.7535      1.6922      1.6922    
  1.7535      1.8793      2.0757      2.3509      2.7154      3.1816      3.7638      4.4772      5.3357      6.3481    
  8.1346      9.5567      11.067      12.595      14.051      15.334      16.342      16.987      17.209      16.987    
  16.342      15.334      14.051      12.595      11.067      9.5567      8.1346      6.8475      5.7199      4.7581    
  3.9552      3.2973      2.7678      2.3509      2.0320      1.7988      1.6406      1.5493      1.5195      1.5493    
  1.6406      1.7988      2.0320      2.3509      2.7678      3.2973      3.9552      4.7581      5.7199      6.8475    
  8.9483      10.493      12.101      13.688      15.150      16.375      17.261      17.726      17.726      17.261    
  16.375      15.150      13.688      12.101      10.493      8.9483      7.5289      6.2711      5.1891      4.2803    
  3.5320      2.9268      2.4468      2.0757      1.7988      1.6036      1.4799      1.4201      1.4201      1.4799    
  1.6036      1.7988      2.0757      2.4468      2.9268      3.5320      4.2803      5.1891      6.2711      7.5289    
  9.9592      11.619      13.305      14.918      16.342      17.464      18.182      18.430      18.182      17.464    
  16.342      14.918      13.305      11.619      9.9592      8.4033      7.0026      5.7830      4.7498      3.8936    
  3.1976      2.6421      2.2083      1.8793      1.6406      1.4799      1.3877      1.3576      1.3877      1.4799    
  1.6406      1.8793      2.2083      2.6421      3.1976      3.8936      4.7498      5.7830      7.0026      8.4033    
  11.157      12.910      14.641      16.236      17.577      18.546      19.055      19.055      18.546      17.577    
  16.236      14.641      12.910      11.157      9.4729      7.9253      6.5550      5.3790      4.3955      3.5905    
  2.9442      2.4352      2.0440      1.7535      1.5493      1.4201      1.3576      1.3576      1.4201      1.5493    
  1.7535      2.0440      2.4352      2.9442      3.5905      4.3955      5.3790      6.5550      7.9253      9.4729    
  12.504      14.312      16.036      17.551      18.739      19.497      19.758      19.497      18.739      17.551    
  16.036      14.312      12.504      10.718      9.0364      7.5143      6.1837      5.0550      4.1215      3.3660    
  2.7664      2.3005      1.9480      1.6922      1.5195      1.4201      1.3877      1.4201      1.5195      1.6922    
  1.9480      2.3005      2.7664      3.3660      4.1215      5.0550      6.1837      7.5143      9.0364      10.718    
  13.919      15.697      17.310      18.645      19.602      20.103      20.103      19.602      18.645      17.310    
  15.697      13.919      12.087      10.307      8.6527      7.1715      5.8885      4.8096      3.9256      3.2171    
  2.6609      2.2340      1.9164      1.6922      1.5493      1.4799      1.4799      1.5493      1.6922      1.9164    
  2.2340      2.6609      3.2171      3.9256      4.8096      5.8885      7.1715      8.6527      10.307      12.087    
  15.199      16.808      18.189      19.254      19.929      20.160      19.929      19.254      18.189      16.808    
  15.199      13.454      11.667      9.9323      8.3296      6.9021      5.6721      4.6440      3.8076      3.1429    
  2.6260      2.2340      1.9480      1.7535      1.6406      1.6036      1.6406      1.7535      1.9480      2.2340    
  2.6260      3.1429      3.8076      4.6440      5.6721      6.9021      8.3296      9.9323      11.667      13.454    
  16.063      17.362      18.409      19.146      19.529      19.529      19.146      18.409      17.362      16.063    
  14.570      12.945      11.265      9.6150      8.0809      6.7146      5.5392      4.5603      3.7682      3.1429    
  2.6609      2.3005      2.0440      1.8793      1.7988      1.7988      1.8793      2.0440      2.3005      2.6609    
  3.1429      3.7682      4.5603      5.5392      6.7146      8.0809      9.6150      11.265      12.945      14.570    
  16.248      17.122      17.771      18.174      18.310      18.174      17.771      17.122      16.248      15.164    
  13.888      12.456      10.925      9.3806      7.9227      6.6180      5.4943      4.5603      3.8076      3.2171    
  2.7664      2.4352      2.2083      2.0757      2.0320      2.0757      2.2083      2.4352      2.7664      3.2171    
  3.8076      4.5603      5.4943      6.6180      7.9227      9.3806      10.925      12.456      13.888      15.164    
  15.561      15.944      16.189      16.310      16.310      16.189      15.944      15.561      15.011      14.256    
  13.271      12.065      10.694      9.2552      7.8683      6.6180      5.5392      4.6440      3.9256      3.3660    
  2.9442      2.6421      2.4468      2.3509      2.3509      2.4468      2.6421      2.9442      3.3660      3.9256    
  4.6440      5.5392      6.6180      7.8683      9.2552      10.694      12.065      13.271      14.256      15.011    
  13.931      13.819      13.723      13.686      13.723      13.819      13.931      13.983      13.877      13.515    
  12.838      11.847      10.612      9.2552      7.9227      6.7146      5.6721      4.8096      4.1215      3.5905    
  3.1976      2.9268      2.7678      2.7154      2.7678      2.9268      3.1976      3.5905      4.1215      4.8096    
  5.6721      6.7146      7.9227      9.2552      10.612      11.847      12.838      13.515      13.877      13.983    
  11.439      10.905      10.608      10.608      10.905      11.439      12.090      12.694      13.078      13.098    
  12.682      11.847      10.694      9.3806      8.0809      6.9021      5.8885      5.0550      4.3955      3.8936    
  3.5320      3.2972      3.1816      3.1816      3.2973      3.5320      3.8936      4.3955      5.0550      5.8885    
  6.9021      8.0809      9.3806      10.694      11.847      12.682      13.098      13.078      12.694      12.090    
  8.3393      7.5437      7.2610      7.5437      8.3393      9.4970      10.792      11.967      12.790      13.098    
  12.838      12.065      10.925      9.6150      8.3296      7.1715      6.1837      5.3790      4.7498      4.2803    
  3.9552      3.7638      3.7005      3.7638      3.9552      4.2803      4.7498      5.3790      6.1837      7.1715    
  8.3296      9.6150      10.925      12.065      12.838      13.098      12.790      11.967      10.792      9.4970    
  5.0541      4.2382      4.2382      5.0542      6.5335      8.4025      10.324      11.967      13.078      13.515    
  13.271      12.456      11.265      9.9323      8.6527      7.5143      6.5550      5.7830      5.1891      4.7581    
  4.4772      4.3384      4.3384      4.4772      4.7581      5.1891      5.7830      6.5550      7.5143      8.6527    
  9.9323      11.265      12.456      13.271      13.515      13.078      11.967      10.324      8.4025      6.5335    
  2.1214      1.5754      2.1214      3.6537      5.8820      8.4025      10.792      12.694      13.877      14.256    
  13.888      12.945      11.667      10.307      9.0364      7.9253      7.0026      6.2711      5.7199      5.3357    
  5.1086      5.0334      5.1086      5.3357      5.7199      6.2711      7.0026      7.9253      9.0364      10.307    
  11.667      12.945      13.888      14.256      13.877      12.694      10.792      8.4025      5.8820      3.6537    
 0.85408E-01 0.85403E-01  1.3593      3.6537      6.5335      9.4970      12.090      13.983      15.011      15.164    
  14.570      13.454      12.087      10.718      9.4729      8.4033      7.5289      6.8475      6.3481      6.0203    
  5.8577      5.8577      6.0204      6.3481      6.8475      7.5289      8.4033      9.4729      10.718      12.087    
  13.454      14.570      15.164      15.011      13.983      12.090      9.4970      6.5335      3.6537      1.3594    
 0.85407E-01  1.5754      4.2382      7.5437      10.905      13.819      15.944      17.122      17.362      16.808    
  15.697      14.312      12.910      11.619      10.493      9.5567      8.8140      8.2606      7.8924      7.7080    
  7.7080      7.8924      8.2606      8.8140      9.5567      10.493      11.619      12.910      14.312      15.697    
  16.808      17.362      17.122      15.944      13.819      10.905      7.5437      4.2382      1.5754     0.85403E-01
  1.5754      3.7738      6.9121      10.386      13.622      16.191      17.853      18.548      18.363      17.499    
  16.225      14.818      13.468      12.250      11.201      10.339      9.6641      9.1785      8.8845      8.7858    
  8.8845      9.1785      9.6641      10.339      11.201      12.250      13.468      14.818      16.225      17.499    
  18.363      18.548      17.853      16.191      13.622      10.386      6.9120      3.7737      1.5754     0.78378    
  4.2382      6.9121      10.201      13.507      16.333      18.359      19.452      19.637      19.067      17.979    
  16.646      15.297      14.037      12.913      11.953      11.168      10.564      10.153      9.9430      9.9430    
  10.153      10.564      11.168      11.953      12.913      14.037      15.297      16.646      17.979      19.067    
  19.637      19.452      18.359      16.333      13.507      10.201      6.9120      4.2382      2.7332      2.7332    
  7.5437      10.386      13.507      16.379      18.620      20.022      20.546      20.288      19.445      18.264    
  16.987      15.748      14.602      13.584      12.712      12.001      11.469      11.138      11.025      11.138    
  11.469      12.001      12.712      13.584      14.602      15.748      16.987      18.264      19.445      20.288    
  20.546      20.022      18.620      16.379      13.507      10.386      7.5437      5.5418      4.8190      5.5418    
  10.905      13.622      16.333      18.620      20.217      21.020      21.066      20.501      19.538      18.408    
  17.261      16.158      15.136      14.217      13.422      12.774      12.309      12.065      12.065      12.309    
  12.774      13.422      14.217      15.136      16.158      17.261      18.408      19.538      20.501      21.066    
  21.020      20.217      18.620      16.333      13.622      10.905      8.6876      7.4368      7.4368      8.6876    
  13.819      16.191      18.359      20.022      21.020      21.334      21.055      20.355      19.437      18.453    
  17.464      16.503      15.591      14.744      13.992      13.388      12.992      12.854      12.992      13.388    
  13.992      14.744      15.591      16.503      17.464      18.453      19.437      20.355      21.055      21.334    
  21.020      20.022      18.359      16.191      13.819      11.652      10.125      9.5741      10.125      11.652    
  15.944      17.853      19.452      20.546      21.066      21.055      20.637      19.978      19.217      18.408    
  17.577      16.733      15.881      15.055      14.320      13.760      13.456      13.456      13.760      14.320    
  15.055      15.881      16.733      17.577      18.408      19.217      19.978      20.637      21.055      21.066    
  20.546      19.452      17.853      15.944      14.027      12.463      11.582      11.582      12.463      14.027    
  17.122      18.548      19.637      20.288      20.501      20.355      19.978      19.480      18.903      18.264    
  17.551      16.757      15.907      15.070      14.351      13.862      13.688      13.862      14.351      15.070    
  15.907      16.757      17.551      18.264      18.903      19.480      19.978      20.355      20.501      20.288    
  19.637      18.548      17.122      15.563      14.141      13.142      12.782      13.142      14.141      15.563    
  17.362      18.363      19.067      19.445      19.538      19.437      19.217      18.903      18.500      17.979    
  17.310      16.502      15.618      14.771      14.098      13.724      13.724      14.098      14.771      15.618    
  16.502      17.310      17.979      18.500      18.903      19.217      19.437      19.538      19.445      19.067    
  18.363      17.362      16.181      15.001      14.044      13.507      13.507      14.044      15.001      16.181    
  16.808      17.499      17.979      18.264      18.408      18.453      18.408      18.264      17.979      17.499    
  16.808      15.951      15.036      14.213      13.638      13.431      13.638      14.213      15.036      15.951    
  16.808      17.499      17.979      18.264      18.408      18.453      18.408      18.264      17.979      17.499    
  16.808      15.951      15.036      14.213      13.638      13.431      13.638      14.213      15.036      15.951    
  15.697      16.225      16.646      16.987      17.261      17.464      17.577      17.551      17.310      16.808    
  16.063      15.164      14.256      13.515      13.098      13.098      13.515      14.256      15.164      16.063    
  16.808      17.310      17.551      17.577      17.464      17.261      16.987      16.646      16.225      15.697    
  15.064      14.371      13.705      13.174      12.879      12.879      13.174      13.705      14.371      15.064    
  14.312      14.818      15.297      15.748      16.158      16.503      16.733      16.757      16.502      15.951    
  15.164      14.266      13.432      12.841      12.627      12.841      13.432      14.266      15.164      15.951    
  16.502      16.757      16.733      16.503      16.158      15.748      15.297      14.818      14.312      13.779    
  13.223      12.684      12.223      11.909      11.798      11.909      12.223      12.684      13.223      13.779    
  12.910      13.468      14.037      14.602      15.136      15.591      15.881      15.907      15.618      15.036    
  14.256      13.432      12.744      12.354      12.354      12.744      13.432      14.256      15.036      15.618    
  15.907      15.881      15.591      15.136      14.602      14.037      13.468      12.910      12.371      11.856    
  11.380      10.969      10.661      10.495      10.495      10.661      10.969      11.380      11.856      12.371    
  11.619      12.250      12.913      13.584      14.217      14.744      15.055      15.070      14.771      14.213    
  13.515      12.841      12.354      12.176      12.354      12.841      13.515      14.213      14.771      15.070    
  15.055      14.744      14.217      13.584      12.913      12.250      11.619      11.035      10.503      10.030    
  9.6275      9.3149      9.1149      9.0458      9.1149      9.3149      9.6275      10.030      10.503      11.035    
  10.493      11.201      11.953      12.712      13.422      13.992      14.320      14.351      14.098      13.638    
  13.098      12.627      12.354      12.354      12.627      13.098      13.638      14.098      14.351      14.320    
  13.992      13.422      12.712      11.953      11.201      10.493      9.8490      9.2779      8.7824      8.3659    
  8.0360      7.8050      7.6854      7.6854      7.8050      8.0360      8.3659      8.7824      9.2779      9.8490    
  9.5567      10.339      11.168      12.001      12.774      13.388      13.760      13.862      13.724      13.431    
  13.098      12.841      12.744      12.841      13.098      13.431      13.724      13.862      13.760      13.388    
  12.774      12.001      11.168      10.339      9.5567      8.8493      8.2286      7.6973      7.2543      6.9003    
  6.6395      6.4788      6.4243      6.4788      6.6395      6.9003      7.2543      7.6973      8.2286      8.8493    
  8.8140      9.6641      10.564      11.469      12.309      12.992      13.456      13.688      13.724      13.638    
  13.515      13.432      13.432      13.515      13.638      13.724      13.688      13.456      12.992      12.309    
  11.469      10.564      9.6641      8.8140      8.0449      7.3721      6.7992      6.3233      5.9406      5.6497    
  5.4527      5.3529      5.3529      5.4527      5.6497      5.9406      6.3233      6.7992      7.3721      8.0449    
  8.2606      9.1785      10.153      11.138      12.065      12.854      13.456      13.862      14.098      14.213    
  14.256      14.266      14.256      14.213      14.098      13.862      13.456      12.854      12.065      11.138    
  10.153      9.1785      8.2606      7.4305      6.7051      6.0884      5.5765      5.1628      4.8421      4.6120    
  4.4731      4.4266      4.4731      4.6120      4.8421      5.1628      5.5765      6.0884      6.7051      7.4305    
  7.8924      8.8845      9.9430      11.025      12.065      12.992      13.760      14.351      14.771      15.036    
  15.164      15.164      15.036      14.771      14.351      13.760      12.992      12.065      11.025      9.9430    
  8.8845      7.8924      6.9974      6.2163      5.5530      5.0025      4.5562      4.2057      3.9451      3.7717    
  3.6850      3.6850      3.7717      3.9451      4.2057      4.5562      5.0025      5.5530      6.2163      6.9974    
  7.7080      8.7858      9.9430      11.138      12.309      13.388      14.320      15.070      15.618      15.951    
  16.063      15.951      15.618      15.070      14.320      13.388      12.309      11.138      9.9430      8.7858    
  7.7080      6.7392      5.8953      5.1796      4.5861      4.1040      3.7222      3.4320      3.2275      3.1057    
  3.0652      3.1057      3.2275      3.4320      3.7222      4.1040      4.5861      5.1796      5.8953      6.7392    
  7.7080      8.8845      10.153      11.469      12.774      13.992      15.055      15.907      16.502      16.808    
  16.808      16.502      15.907      15.055      13.992      12.774      11.469      10.153      8.8845      7.7080    
  6.6533      5.7360      4.9588      4.3145      3.7907      3.3740      3.0527      2.8181      2.6646      2.5886    
  2.5886      2.6646      2.8181      3.0527      3.3740      3.7907      4.3145      4.9588      5.7360      6.6533    
  7.8924      9.1785      10.564      12.001      13.422      14.744      15.881      16.757      17.310      17.499    