cd Si DFT ground state                  
   5.4299999999999997     
     0.500000    0.500000    0.000000
     0.000000    0.500000    0.500000
     0.500000    0.000000    0.500000
   Si
     2
Direct
   0.000000  0.000000  0.000000
   0.250000  0.250000  0.250000

   40   40   40
 -.64414390695E+00 0.85406978449E-01 0.21213829082E+01 0.50541457729E+01 0.83392512285E+01
 0.11439002692E+02 0.13931020952E+02 0.15560866311E+02 0.16247593652E+02 0.16063223810E+02
 0.15198865299E+02 0.13918915730E+02 0.12504154945E+02 0.11157045103E+02 0.99591988661E+01
 0.89483457692E+01 0.81345988335E+01 0.75130225762E+01 0.70748253446E+01 0.68136587257E+01
 0.67267972308E+01 0.68136575482E+01 0.70748250187E+01 0.75130237664E+01 0.81345997039E+01
 0.89483449909E+01 0.99591977552E+01 0.11157045361E+02 0.12504155850E+02 0.13918915522E+02
 0.15198864377E+02 0.16063224191E+02 0.16247595401E+02 0.15560866927E+02 0.13931019059E+02
 0.11439000300E+02 0.83392510084E+01 0.50541475904E+01 0.21213846442E+01 0.85407617330E-01
 0.85406978449E-01 0.15753792039E+01 0.42381782844E+01 0.75437169537E+01 0.10905202953E+02
 0.13818808797E+02 0.15943811053E+02 0.17122249767E+02 0.17362458125E+02 0.16807938897E+02
 0.15697194667E+02 0.14312472928E+02 0.12910434521E+02 0.11618999543E+02 0.10493047097E+02
 0.95567059863E+01 0.88139781098E+01 0.82605911071E+01 0.78923590134E+01 0.77080396087E+01
 0.77080385916E+01 0.78923578670E+01 0.82605922952E+01 0.88139803237E+01 0.95567060188E+01
 0.10493044974E+02 0.11618998534E+02 0.12910435966E+02 0.14312474175E+02 0.15697193212E+02
 0.16807935952E+02 0.17362456415E+02 0.17122250008E+02 0.15943812695E+02 0.13818812192E+02
 0.10905207694E+02 0.75437193345E+01 0.42381744702E+01 0.15753714390E+01 0.85402932855E-01
 0.21213829082E+01 0.42381782844E+01 0.72610339738E+01 0.10607711695E+02 0.13722732734E+02
 0.16189018322E+02 0.17771062146E+02 0.18408614395E+02 0.18188779620E+02 0.17309870314E+02
 0.16036067493E+02 0.14640816257E+02 0.13305211436E+02 0.12101466642E+02 0.11066801742E+02
 0.10215553355E+02 0.95502929620E+01 0.90713811404E+01 0.87813756050E+01 0.86840975676E+01
 0.87813768839E+01 0.90713814272E+01 0.95502916878E+01 0.10215552733E+02 0.11066803021E+02
 0.12101467892E+02 0.13305210659E+02 0.14640814636E+02 0.16036067396E+02 0.17309871487E+02
 0.18188779878E+02 0.18408613445E+02 0.17771062045E+02 0.16189019874E+02 0.13722733923E+02
 0.10607710766E+02 0.72610321042E+01 0.42381776162E+01 0.21213833598E+01 0.13593486678E+01
 0.50541457729E+01 0.75437169537E+01 0.10607711695E+02 0.13686219426E+02 0.16310147116E+02
 0.18173602824E+02 0.19146472505E+02 0.19254182301E+02 0.18645330256E+02 0.17551381253E+02
 0.16236456161E+02 0.14917674066E+02 0.13688139389E+02 0.12594872019E+02 0.11661748661E+02
 0.10899119947E+02 0.10313698696E+02 0.99141993533E+01 0.97108584220E+01 0.97108588705E+01
 0.99141994593E+01 0.10313697249E+02 0.10899118648E+02 0.11661749758E+02 0.12594874355E+02
 0.13688139761E+02 0.14917672066E+02 0.16236454774E+02 0.17551382454E+02 0.18645332697E+02
 0.19254184043E+02 0.19146473332E+02 0.18173602535E+02 0.16310144215E+02 0.13686214090E+02
 0.10607708213E+02 0.75437196723E+01 0.50541526917E+01 0.36537285125E+01 0.36537248021E+01
 0.83392512285E+01 0.10905202953E+02 0.13722732734E+02 0.16310147116E+02 0.18310500681E+02
 0.19529266312E+02 0.19928779369E+02 0.19602376967E+02 0.18738717471E+02 0.17576585238E+02
 0.16342146415E+02 0.15149599862E+02 0.14051236784E+02 0.13077543384E+02 0.12245553698E+02
 0.11568646253E+02 0.11063164039E+02 0.10748419413E+02 0.10641217191E+02 0.10748418036E+02
 0.11063163451E+02 0.11568647354E+02 0.12245554784E+02 0.13077542981E+02 0.14051235960E+02
 0.15149600236E+02 0.16342147291E+02 0.17576584818E+02 0.18738716150E+02 0.19602376943E+02
 0.19928780932E+02 0.19529267093E+02 0.18310499428E+02 0.16310145808E+02 0.13722733353E+02
 0.10905204257E+02 0.83392509476E+01 0.65335428056E+01 0.58819746778E+01 0.65335441085E+01
 0.11439002692E+02 0.13818808797E+02 0.16189018322E+02 0.18173602824E+02 0.19529266312E+02
 0.20159990018E+02 0.20102534546E+02 0.19496893354E+02 0.18546114413E+02 0.17463521841E+02
 0.16375083191E+02 0.15334274120E+02 0.14373877444E+02 0.13514500853E+02 0.12773964352E+02
 0.12173763604E+02 0.11744724262E+02 0.11519621978E+02 0.11519621651E+02 0.11744724160E+02
 0.12173764585E+02 0.12773965244E+02 0.13514500211E+02 0.14373876307E+02 0.15334274631E+02
 0.16375084833E+02 0.17463521703E+02 0.18546111674E+02 0.19496890874E+02 0.20102534714E+02
 0.20159991517E+02 0.19529267042E+02 0.18173603745E+02 0.16189021201E+02 0.13818811568E+02
 0.11439001241E+02 0.94970143910E+01 0.84024896366E+01 0.84024925831E+01 0.94970195505E+01
 0.13931020952E+02 0.15943811053E+02 0.17771062146E+02 0.19146472505E+02 0.19928779369E+02
 0.20102534546E+02 0.19757668893E+02 0.19055339208E+02 0.18182052426E+02 0.17260875299E+02
 0.16342146505E+02 0.15456263187E+02 0.14622741020E+02 0.13856111359E+02 0.13181115589E+02
 0.12641452343E+02 0.12289033625E+02 0.12166131339E+02 0.12289034245E+02 0.12641452045E+02
 0.13181114197E+02 0.13856110789E+02 0.14622742364E+02 0.15456264877E+02 0.16342146579E+02
 0.17260874116E+02 0.18182051635E+02 0.19055339067E+02 0.19757668464E+02 0.20102534037E+02
 0.19928780179E+02 0.19146474630E+02 0.17771063446E+02 0.15943810026E+02 0.13931018813E+02
 0.12089624251E+02 0.10791985701E+02 0.10323624018E+02 0.10791985693E+02 0.12089625409E+02
 0.15560866311E+02 0.17122249767E+02 0.18408614395E+02 0.19254182301E+02 0.19602376967E+02
 0.19496893354E+02 0.19055339208E+02 0.18429634225E+02 0.17726015484E+02 0.16986994298E+02
 0.16236456234E+02 0.15486659479E+02 0.14742252676E+02 0.14027437189E+02 0.13394744584E+02
 0.12914435800E+02 0.12653712843E+02 0.12653712711E+02 0.12914434968E+02 0.13394742995E+02
 0.14027436314E+02 0.14742253703E+02 0.15486661198E+02 0.16236456602E+02 0.16986993634E+02
 0.17726015939E+02 0.18429636000E+02 0.19055339744E+02 0.19496891300E+02 0.19602374771E+02
 0.19254182925E+02 0.18408616908E+02 0.17122250579E+02 0.15560864152E+02 0.13983347387E+02
 0.12694022748E+02 0.11967429124E+02 0.11967429302E+02 0.12694024065E+02 0.13983350208E+02
 0.16247593652E+02 0.17362458125E+02 0.18188779620E+02 0.18645330256E+02 0.18738717471E+02
 0.18546114413E+02 0.18182052426E+02 0.17726015484E+02 0.17209018740E+02 0.16645521231E+02
 0.16036067530E+02 0.15370926123E+02 0.14666425963E+02 0.13976484143E+02 0.13384381255E+02
 0.12981246179E+02 0.12837951824E+02 0.12981245661E+02 0.13384380977E+02 0.13976484221E+02
 0.14666425673E+02 0.15370925412E+02 0.16036067524E+02 0.16645522562E+02 0.17209020305E+02
 0.17726015781E+02 0.18182051495E+02 0.18546113439E+02 0.18738716934E+02 0.18645329689E+02
 0.18188779068E+02 0.17362458460E+02 0.16247594987E+02 0.15010752305E+02 0.13876778534E+02
 0.13077770168E+02 0.12789541135E+02 0.13077771218E+02 0.13876779002E+02 0.15010751331E+02
 0.16063223810E+02 0.16807938897E+02 0.17309870314E+02 0.17551381253E+02 0.17576585238E+02
 0.17463521841E+02 0.17260875299E+02 0.16986994298E+02 0.16645521231E+02 0.16224611739E+02
 0.15697194742E+02 0.15063955000E+02 0.14370744926E+02 0.13704594567E+02 0.13174102517E+02
 0.12878995212E+02 0.12878995633E+02 0.13174103333E+02 0.13704594798E+02 0.14370744053E+02
 0.15063953776E+02 0.15697194577E+02 0.16224612903E+02 0.16645522189E+02 0.16986993532E+02
 0.17260873497E+02 0.17463521308E+02 0.17576586932E+02 0.17551383271E+02 0.17309869976E+02
 0.16807935994E+02 0.16063221147E+02 0.15163557436E+02 0.14255914615E+02 0.13515093718E+02
 0.13098118979E+02 0.13098116727E+02 0.13515088603E+02 0.14255910312E+02 0.15163556778E+02
 0.15198865299E+02 0.15697194667E+02 0.16036067493E+02 0.16236456161E+02 0.16342146415E+02
 0.16375083191E+02 0.16342146505E+02 0.16236456234E+02 0.16036067530E+02 0.15697194742E+02
 0.15198865403E+02 0.14569503192E+02 0.13888494757E+02 0.13270916297E+02 0.12838089758E+02
 0.12682321745E+02 0.12838090329E+02 0.13270916510E+02 0.13888494107E+02 0.14569502312E+02
 0.15198865143E+02 0.15697195052E+02 0.16036067762E+02 0.16236456207E+02 0.16342146606E+02
 0.16375083537E+02 0.16342146658E+02 0.16236456216E+02 0.16036067726E+02 0.15697195062E+02
 0.15198865195E+02 0.14569502310E+02 0.13888494049E+02 0.13270916493E+02 0.12838090355E+02
 0.12682321725E+02 0.12838089693E+02 0.13270916281E+02 0.13888494782E+02 0.14569503156E+02
 0.13918915730E+02 0.14312472928E+02 0.14640816257E+02 0.14917674066E+02 0.15149599862E+02
 0.15334274120E+02 0.15456263187E+02 0.15486659479E+02 0.15370926123E+02 0.15063955000E+02
 0.14569503192E+02 0.13948210422E+02 0.13308357805E+02 0.12780471762E+02 0.12481836948E+02
 0.12481836716E+02 0.12780471574E+02 0.13308358145E+02 0.13948210560E+02 0.14569502200E+02
 0.15063953556E+02 0.15370926062E+02 0.15486661445E+02 0.15456265651E+02 0.15334274998E+02
 0.15149598487E+02 0.14917671515E+02 0.14640814502E+02 0.14312473749E+02 0.13918919306E+02
 0.13453798175E+02 0.12945433136E+02 0.12455774189E+02 0.12064894480E+02 0.11847132090E+02
 0.11847135637E+02 0.12064902048E+02 0.12455779659E+02 0.12945433132E+02 0.13453794376E+02
 0.12504154945E+02 0.12910434521E+02 0.13305211436E+02 0.13688139389E+02 0.14051236784E+02
 0.14373877444E+02 0.14622741020E+02 0.14742252676E+02 0.14666425963E+02 0.14370744926E+02
 0.13888494757E+02 0.13308357805E+02 0.12755212732E+02 0.12358041676E+02 0.12213674695E+02
 0.12358041505E+02 0.12755212746E+02 0.13308357924E+02 0.13888494414E+02 0.14370744060E+02
 0.14666425444E+02 0.14742253265E+02 0.14622742303E+02 0.14373878271E+02 0.14051236572E+02
 0.13688138537E+02 0.13305210624E+02 0.12910434088E+02 0.12504154976E+02 0.12087359103E+02
 0.11667023643E+02 0.11265430001E+02 0.10924618789E+02 0.10693704038E+02 0.10611778170E+02
 0.10693704446E+02 0.10924619029E+02 0.11265429672E+02 0.11667022979E+02 0.12087358619E+02
 0.11157045103E+02 0.11618999543E+02 0.12101466642E+02 0.12594872019E+02 0.13077543384E+02
 0.13514500853E+02 0.13856111359E+02 0.14027437189E+02 0.13976484143E+02 0.13704594567E+02
 0.13270916297E+02 0.12780471762E+02 0.12358041676E+02 0.12114344166E+02 0.12114344256E+02
 0.12358041534E+02 0.12780471097E+02 0.13270915905E+02 0.13704595164E+02 0.13976484796E+02
 0.14027436305E+02 0.13856109207E+02 0.13514499716E+02 0.13077544774E+02 0.12594874786E+02
 0.12101468418E+02 0.11618999126E+02 0.11157042806E+02 0.10718465124E+02 0.10306748641E+02
 0.99323358521E+01 0.96150034310E+01 0.93806353523E+01 0.92552049996E+01 0.92552018597E+01
 0.93806286082E+01 0.96149982641E+01 0.99323350033E+01 0.10306751037E+02 0.10718468323E+02
 0.99591988661E+01 0.10493047097E+02 0.11066801742E+02 0.11661748661E+02 0.12245553698E+02
 0.12773964352E+02 0.13181115589E+02 0.13394744584E+02 0.13384381255E+02 0.13174102517E+02
 0.12838089758E+02 0.12481836948E+02 0.12213674695E+02 0.12114344256E+02 0.12213674819E+02
 0.12481837100E+02 0.12838089930E+02 0.13174102703E+02 0.13384381187E+02 0.13394743921E+02
 0.13181114521E+02 0.12773963705E+02 0.12245554135E+02 0.11661749910E+02 0.11066802868E+02
 0.10493047459E+02 0.99591985751E+01 0.94729297217E+01 0.90364479918E+01 0.86526806437E+01
 0.83295970171E+01 0.80808874386E+01 0.79227465839E+01 0.78683431860E+01 0.79227464361E+01
 0.80808873256E+01 0.83295970808E+01 0.86526808859E+01 0.90364483833E+01 0.94729302043E+01
 0.89483457692E+01 0.95567059863E+01 0.10215553355E+02 0.10899119947E+02 0.11568646253E+02
 0.12173763604E+02 0.12641452343E+02 0.12914435800E+02 0.12981246179E+02 0.12878995212E+02
 0.12682321745E+02 0.12481836716E+02 0.12358041505E+02 0.12358041534E+02 0.12481837100E+02
 0.12682322607E+02 0.12878995720E+02 0.12981245606E+02 0.12914434962E+02 0.12641452771E+02
 0.12173765187E+02 0.11568646932E+02 0.10899118357E+02 0.10215550886E+02 0.95567053171E+01
 0.89483478153E+01 0.84033151439E+01 0.79252912272E+01 0.75142765727E+01 0.71715212050E+01
 0.69021374936E+01 0.67146417330E+01 0.66180212476E+01 0.66180227634E+01 0.67146453459E+01
 0.69021412581E+01 0.71715235628E+01 0.75142767611E+01 0.79252891999E+01 0.84033119966E+01
 0.81345988335E+01 0.88139781098E+01 0.95502929620E+01 0.10313698696E+02 0.11063164039E+02
 0.11744724262E+02 0.12289033625E+02 0.12653712843E+02 0.12837951824E+02 0.12878995633E+02
 0.12838090329E+02 0.12780471574E+02 0.12755212746E+02 0.12780471097E+02 0.12838089930E+02
 0.12878995720E+02 0.12837952249E+02 0.12653713271E+02 0.12289033979E+02 0.11744724564E+02
 0.11063164053E+02 0.10313698137E+02 0.95502920433E+01 0.88139775014E+01 0.81345989405E+01
 0.75288955655E+01 0.70026028791E+01 0.65549824776E+01 0.61837306243E+01 0.58884998216E+01
 0.56720652997E+01 0.55392114500E+01 0.54943377479E+01 0.55392114616E+01 0.56720652645E+01
 0.58884997724E+01 0.61837306152E+01 0.65549823689E+01 0.70026024720E+01 0.75288950338E+01
 0.75130225762E+01 0.82605911071E+01 0.90713811404E+01 0.99141993533E+01 0.10748419413E+02
 0.11519621978E+02 0.12166131339E+02 0.12653712711E+02 0.12981245661E+02 0.13174103333E+02
 0.13270916510E+02 0.13308358145E+02 0.13308357924E+02 0.13270915905E+02 0.13174102703E+02
 0.12981245606E+02 0.12653713271E+02 0.12166131586E+02 0.11519621118E+02 0.10748418220E+02
 0.99141996080E+01 0.90713832727E+01 0.82605930820E+01 0.75130218981E+01 0.68474651553E+01
 0.62710918265E+01 0.57830321240E+01 0.53789667087E+01 0.50549845709E+01 0.48096375641E+01
 0.46440010596E+01 0.45603312039E+01 0.45603314240E+01 0.46440009242E+01 0.48096357429E+01
 0.50549812009E+01 0.53789639769E+01 0.57830323826E+01 0.62710950089E+01 0.68474684838E+01
 0.70748253446E+01 0.78923590134E+01 0.87813756050E+01 0.97108584220E+01 0.10641217191E+02
 0.11519621651E+02 0.12289034245E+02 0.12914434968E+02 0.13384380977E+02 0.13704594798E+02
 0.13888494107E+02 0.13948210560E+02 0.13888494414E+02 0.13704595164E+02 0.13384381187E+02
 0.12914434962E+02 0.12289033979E+02 0.11519621118E+02 0.10641216670E+02 0.97108584248E+01
 0.87813763172E+01 0.78923599248E+01 0.70748257090E+01 0.63481260798E+01 0.57199344865E+01
 0.51890842149E+01 0.47497732543E+01 0.43954816110E+01 0.41214774602E+01 0.39255911662E+01
 0.38076331214E+01 0.37682019799E+01 0.38076331361E+01 0.39255912270E+01 0.41214774954E+01
 0.43954815271E+01 0.47497731917E+01 0.51890844777E+01 0.57199350635E+01 0.63481264414E+01
 0.68136587257E+01 0.77080396087E+01 0.86840975676E+01 0.97108588705E+01 0.10748418036E+02
 0.11744724160E+02 0.12641452045E+02 0.13394742995E+02 0.13976484221E+02 0.14370744053E+02
 0.14569502312E+02 0.14569502200E+02 0.14370744060E+02 0.13976484796E+02 0.13394743921E+02
 0.12641452771E+02 0.11744724564E+02 0.10748418220E+02 0.97108584248E+01 0.86840959782E+01
 0.77080376214E+01 0.68136583982E+01 0.60203504570E+01 0.53357435828E+01 0.47581186703E+01
 0.42803134766E+01 0.38936210068E+01 0.35905385450E+01 0.33659677169E+01 0.32171424990E+01
 0.31429015206E+01 0.31429004102E+01 0.32171405036E+01 0.33659675200E+01 0.35905413905E+01
 0.38936251180E+01 0.42803154916E+01 0.47581169184E+01 0.53357397870E+01 0.60203479242E+01
 0.67267972308E+01 0.77080385916E+01 0.87813768839E+01 0.99141994593E+01 0.11063163451E+02
 0.12173764585E+02 0.13181114197E+02 0.14027436314E+02 0.14666425673E+02 0.15063953776E+02
 0.15198865143E+02 0.15063953556E+02 0.14666425444E+02 0.14027436305E+02 0.13181114521E+02
 0.12173765187E+02 0.11063164053E+02 0.99141996080E+01 0.87813763172E+01 0.77080376214E+01
 0.67267965682E+01 0.58577321698E+01 0.51085987240E+01 0.44772078468E+01 0.39552073112E+01
 0.35319811587E+01 0.31975733230E+01 0.29441782297E+01 0.27664123915E+01 0.26609368442E+01
 0.26259651227E+01 0.26609368406E+01 0.27664123357E+01 0.29441781631E+01 0.31975733726E+01
 0.35319813078E+01 0.39552072925E+01 0.44772074510E+01 0.51085982018E+01 0.58577321044E+01
 0.68136575482E+01 0.78923578670E+01 0.90713814272E+01 0.10313697249E+02 0.11568647354E+02
 0.12773965244E+02 0.13856110789E+02 0.14742253703E+02 0.15370925412E+02 0.15697194577E+02
 0.15697195052E+02 0.15370926062E+02 0.14742253265E+02 0.13856109207E+02 0.12773963705E+02
 0.11568646932E+02 0.10313698137E+02 0.90713832727E+01 0.78923599248E+01 0.68136583982E+01
 0.58577321698E+01 0.50333672415E+01 0.43384287217E+01 0.37637745715E+01 0.32972506449E+01
 0.29267796296E+01 0.26420855702E+01 0.24352219765E+01 0.23004510401E+01 0.22340091539E+01
 0.22340101493E+01 0.23004533113E+01 0.24352235669E+01 0.26420844481E+01 0.29267757943E+01
 0.32972468616E+01 0.37637740104E+01 0.43384317191E+01 0.50333710448E+01 0.58577339032E+01
 0.70748250187E+01 0.82605922952E+01 0.95502916878E+01 0.10899118648E+02 0.12245554784E+02
 0.13514500211E+02 0.14622742364E+02 0.15486661198E+02 0.16036067524E+02 0.16224612903E+02
 0.16036067762E+02 0.15486661445E+02 0.14622742303E+02 0.13514499716E+02 0.12245554135E+02
 0.10899118357E+02 0.95502920433E+01 0.82605930820E+01 0.70748257090E+01 0.60203504570E+01
 0.51085987240E+01 0.43384287217E+01 0.37004955056E+01 0.31815592009E+01 0.27678145737E+01
 0.24468320472E+01 0.22082854890E+01 0.20440149090E+01 0.19479836634E+01 0.19164066503E+01
 0.19479835984E+01 0.20440149246E+01 0.22082856069E+01 0.24468320960E+01 0.27678144639E+01
 0.31815591143E+01 0.37004956849E+01 0.43384291300E+01 0.51085990093E+01 0.60203502624E+01
 0.75130237664E+01 0.88139803237E+01 0.10215552733E+02 0.11661749758E+02 0.13077542981E+02
 0.14373876307E+02 0.15456264877E+02 0.16236456602E+02 0.16645522562E+02 0.16645522189E+02
 0.16236456207E+02 0.15456265651E+02 0.14373878271E+02 0.13077544774E+02 0.11661749910E+02
 0.10215550886E+02 0.88139775014E+01 0.75130218981E+01 0.63481260798E+01 0.53357435828E+01
 0.44772078468E+01 0.37637745715E+01 0.31815592009E+01 0.27153496335E+01 0.23508641273E+01
 0.20756631313E+01 0.18793209212E+01 0.17534838470E+01 0.16921540789E+01 0.16921535857E+01
 0.17534823296E+01 0.18793189776E+01 0.20756625679E+01 0.23508664393E+01 0.27153537895E+01
 0.31815619577E+01 0.37637735730E+01 0.44772040045E+01 0.53357400460E+01 0.63481252505E+01
 0.81345997039E+01 0.95567060188E+01 0.11066803021E+02 0.12594874355E+02 0.14051235960E+02
 0.15334274631E+02 0.16342146579E+02 0.16986993634E+02 0.17209020305E+02 0.16986993532E+02
 0.16342146606E+02 0.15334274998E+02 0.14051236572E+02 0.12594874786E+02 0.11066802868E+02
 0.95567053171E+01 0.81345989405E+01 0.68474651553E+01 0.57199344865E+01 0.47581186703E+01
 0.39552073112E+01 0.32972506449E+01 0.27678145737E+01 0.23508641273E+01 0.20320076425E+01
 0.17987648045E+01 0.16406180731E+01 0.15493230319E+01 0.15195157431E+01 0.15493230740E+01
 0.16406181032E+01 0.17987647662E+01 0.20320075501E+01 0.23508640715E+01 0.27678146062E+01
 0.32972506638E+01 0.39552071483E+01 0.47581183501E+01 0.57199343273E+01 0.68474654883E+01
 0.89483449909E+01 0.10493044974E+02 0.12101467892E+02 0.13688139761E+02 0.15149600236E+02
 0.16375084833E+02 0.17260874116E+02 0.17726015939E+02 0.17726015781E+02 0.17260873497E+02
 0.16375083537E+02 0.15149598487E+02 0.13688138537E+02 0.12101468418E+02 0.10493047459E+02
 0.89483478153E+01 0.75288955655E+01 0.62710918265E+01 0.51890842149E+01 0.42803134766E+01
 0.35319811587E+01 0.29267796296E+01 0.24468320472E+01 0.20756631313E+01 0.17987648045E+01
 0.16036269177E+01 0.14799249533E+01 0.14200964690E+01 0.14200965388E+01 0.14799255740E+01
 0.16036284456E+01 0.17987662425E+01 0.20756625892E+01 0.24468289009E+01 0.29267758424E+01
 0.35319798340E+01 0.42803158749E+01 0.51890884085E+01 0.62710944698E+01 0.75288949193E+01
 0.99591977552E+01 0.11618998534E+02 0.13305210659E+02 0.14917672066E+02 0.16342147291E+02
 0.17463521703E+02 0.18182051635E+02 0.18429636000E+02 0.18182051495E+02 0.17463521308E+02
 0.16342146658E+02 0.14917671515E+02 0.13305210624E+02 0.11618999126E+02 0.99591985751E+01
 0.84033151439E+01 0.70026028791E+01 0.57830321240E+01 0.47497732543E+01 0.38936210068E+01
 0.31975733230E+01 0.26420855702E+01 0.22082854890E+01 0.18793209212E+01 0.16406180731E+01
 0.14799249533E+01 0.13876671846E+01 0.13576357922E+01 0.13876671655E+01 0.14799249239E+01
 0.16406180734E+01 0.18793209914E+01 0.22082855916E+01 0.26420855979E+01 0.31975732491E+01
 0.38936209879E+01 0.47497734668E+01 0.57830324657E+01 0.70026029547E+01 0.84033146677E+01
 0.11157045361E+02 0.12910435966E+02 0.14640814636E+02 0.16236454774E+02 0.17576584818E+02
 0.18546111674E+02 0.19055339067E+02 0.19055339744E+02 0.18546113439E+02 0.17576586932E+02
 0.16236456216E+02 0.14640814502E+02 0.12910434088E+02 0.11157042806E+02 0.94729297217E+01
 0.79252912272E+01 0.65549824776E+01 0.53789667087E+01 0.43954816110E+01 0.35905385450E+01
 0.29441782297E+01 0.24352219765E+01 0.20440149090E+01 0.17534838470E+01 0.15493230319E+01
 0.14200964690E+01 0.13576357922E+01 0.13576359903E+01 0.14200965556E+01 0.15493221992E+01
 0.17534823112E+01 0.20440141990E+01 0.24352235236E+01 0.29441815798E+01 0.35905412914E+01
 0.43954814719E+01 0.53789637245E+01 0.65549790149E+01 0.79252898203E+01 0.94729309988E+01
 0.12504155850E+02 0.14312474175E+02 0.16036067396E+02 0.17551382454E+02 0.18738716150E+02
 0.19496890874E+02 0.19757668464E+02 0.19496891300E+02 0.18738716934E+02 0.17551383271E+02
 0.16036067726E+02 0.14312473749E+02 0.12504154976E+02 0.10718465124E+02 0.90364479918E+01
 0.75142765727E+01 0.61837306243E+01 0.50549845709E+01 0.41214774602E+01 0.33659677169E+01
 0.27664123915E+01 0.23004510401E+01 0.19479836634E+01 0.16921540789E+01 0.15195157431E+01
 0.14200965388E+01 0.13876671655E+01 0.14200965556E+01 0.15195157800E+01 0.16921541022E+01
 0.19479836194E+01 0.23004509404E+01 0.27664123361E+01 0.33659677781E+01 0.41214775497E+01
 0.50549844897E+01 0.61837303062E+01 0.75142762678E+01 0.90364481121E+01 0.10718465813E+02
 0.13918915522E+02 0.15697193212E+02 0.17309871487E+02 0.18645332697E+02 0.19602376943E+02
 0.20102534714E+02 0.20102534037E+02 0.19602374771E+02 0.18645329689E+02 0.17309869976E+02
 0.15697195062E+02 0.13918919306E+02 0.12087359103E+02 0.10306748641E+02 0.86526806437E+01
 0.71715212050E+01 0.58884998216E+01 0.48096375641E+01 0.39255911662E+01 0.32171424990E+01
 0.26609368442E+01 0.22340091539E+01 0.19164066503E+01 0.16921535857E+01 0.15493230740E+01
 0.14799255740E+01 0.14799249239E+01 0.15493221992E+01 0.16921541022E+01 0.19164083224E+01
 0.22340101977E+01 0.26609361641E+01 0.32171405436E+01 0.39255888883E+01 0.48096358262E+01
 0.58884997882E+01 0.71715237047E+01 0.86526844020E+01 0.10306750465E+02 0.12087357144E+02
 0.15198864377E+02 0.16807935952E+02 0.18188779878E+02 0.19254184043E+02 0.19928780932E+02
 0.20159991517E+02 0.19928780179E+02 0.19254182925E+02 0.18188779068E+02 0.16807935994E+02
 0.15198865195E+02 0.13453798175E+02 0.11667023643E+02 0.99323358521E+01 0.83295970171E+01
 0.69021374936E+01 0.56720652997E+01 0.46440010596E+01 0.38076331214E+01 0.31429015206E+01
 0.26259651227E+01 0.22340101493E+01 0.19479835984E+01 0.17534823296E+01 0.16406181032E+01
 0.16036284456E+01 0.16406180734E+01 0.17534823112E+01 0.19479836194E+01 0.22340101977E+01
 0.26259651768E+01 0.31429015663E+01 0.38076331297E+01 0.46440010094E+01 0.56720652697E+01
 0.69021376440E+01 0.83295973491E+01 0.99323360275E+01 0.11667023247E+02 0.13453797252E+02
 0.16063224191E+02 0.17362456415E+02 0.18408613445E+02 0.19146473332E+02 0.19529267093E+02
 0.19529267042E+02 0.19146474630E+02 0.18408616908E+02 0.17362458460E+02 0.16063221147E+02
 0.14569502310E+02 0.12945433136E+02 0.11265430001E+02 0.96150034310E+01 0.80808874386E+01
 0.67146417330E+01 0.55392114500E+01 0.45603312039E+01 0.37682019799E+01 0.31429004102E+01
 0.26609368406E+01 0.23004533113E+01 0.20440149246E+01 0.18793189776E+01 0.17987647662E+01
 0.17987662425E+01 0.18793209914E+01 0.20440141990E+01 0.23004509404E+01 0.26609361641E+01
 0.31429015663E+01 0.37682025596E+01 0.45603313599E+01 0.55392137414E+01 0.67146453924E+01
 0.80808875395E+01 0.96149981018E+01 0.11265424644E+02 0.12945433859E+02 0.14569507604E+02
 0.16247595401E+02 0.17122250008E+02 0.17771062045E+02 0.18173602535E+02 0.18310499428E+02
 0.18173603745E+02 0.17771063446E+02 0.17122250579E+02 0.16247594987E+02 0.15163557436E+02
 0.13888494049E+02 0.12455774189E+02 0.10924618789E+02 0.93806353523E+01 0.79227465839E+01
 0.66180212476E+01 0.54943377479E+01 0.45603314240E+01 0.38076331361E+01 0.32171405036E+01
 0.27664123357E+01 0.24352235669E+01 0.22082856069E+01 0.20756625679E+01 0.20320075501E+01
 0.20756625892E+01 0.22082855916E+01 0.24352235236E+01 0.27664123361E+01 0.32171405436E+01
 0.38076331297E+01 0.45603313599E+01 0.54943377263E+01 0.66180213127E+01 0.79227466253E+01
 0.93806352547E+01 0.10924618640E+02 0.12455774276E+02 0.13888494586E+02 0.15163558234E+02
 0.15560866927E+02 0.15943812695E+02 0.16189019874E+02 0.16310144215E+02 0.16310145808E+02
 0.16189021201E+02 0.15943810026E+02 0.15560864152E+02 0.15010752305E+02 0.14255914615E+02
 0.13270916493E+02 0.12064894480E+02 0.10693704038E+02 0.92552049996E+01 0.78683431860E+01
 0.66180227634E+01 0.55392114616E+01 0.46440009242E+01 0.39255912270E+01 0.33659675200E+01
 0.29441781631E+01 0.26420844481E+01 0.24468320960E+01 0.23508664393E+01 0.23508640715E+01
 0.24468289009E+01 0.26420855979E+01 0.29441815798E+01 0.33659677781E+01 0.39255888883E+01
 0.46440010094E+01 0.55392137414E+01 0.66180213127E+01 0.78683370903E+01 0.92552020132E+01
 0.10693709397E+02 0.12064902049E+02 0.13270917094E+02 0.14255909152E+02 0.15010749443E+02
 0.13931019059E+02 0.13818812192E+02 0.13722733923E+02 0.13686214090E+02 0.13722733353E+02
 0.13818811568E+02 0.13931018813E+02 0.13983347387E+02 0.13876778534E+02 0.13515093718E+02
 0.12838090355E+02 0.11847132090E+02 0.10611778170E+02 0.92552018597E+01 0.79227464361E+01
 0.67146453459E+01 0.56720652645E+01 0.48096357429E+01 0.41214774954E+01 0.35905413905E+01
 0.31975733726E+01 0.29267757943E+01 0.27678144639E+01 0.27153537895E+01 0.27678146062E+01
 0.29267758424E+01 0.31975732491E+01 0.35905412914E+01 0.41214775497E+01 0.48096358262E+01
 0.56720652697E+01 0.67146453924E+01 0.79227466253E+01 0.92552020132E+01 0.10611778043E+02
 0.11847131734E+02 0.12838090030E+02 0.13515093522E+02 0.13876778370E+02 0.13983347301E+02
 0.11439000300E+02 0.10905207694E+02 0.10607710766E+02 0.10607708213E+02 0.10905204257E+02
 0.11439001241E+02 0.12089624251E+02 0.12694022748E+02 0.13077770168E+02 0.13098118979E+02
 0.12682321725E+02 0.11847135637E+02 0.10693704446E+02 0.93806286082E+01 0.80808873256E+01
 0.69021412581E+01 0.58884997724E+01 0.50549812009E+01 0.43954815271E+01 0.38936251180E+01
 0.35319813078E+01 0.32972468616E+01 0.31815591143E+01 0.31815619577E+01 0.32972506638E+01
 0.35319798340E+01 0.38936209879E+01 0.43954814719E+01 0.50549844897E+01 0.58884997882E+01
 0.69021376440E+01 0.80808875395E+01 0.93806352547E+01 0.10693709397E+02 0.11847131734E+02
 0.12682313861E+02 0.13098116745E+02 0.13077773841E+02 0.12694024628E+02 0.12089621858E+02
 0.83392510084E+01 0.75437193345E+01 0.72610321042E+01 0.75437196723E+01 0.83392509476E+01
 0.94970143910E+01 0.10791985701E+02 0.11967429124E+02 0.12789541135E+02 0.13098116727E+02
 0.12838089693E+02 0.12064902048E+02 0.10924619029E+02 0.96149982641E+01 0.83295970808E+01
 0.71715235628E+01 0.61837306152E+01 0.53789639769E+01 0.47497731917E+01 0.42803154916E+01
 0.39552072925E+01 0.37637740104E+01 0.37004956849E+01 0.37637735730E+01 0.39552071483E+01
 0.42803158749E+01 0.47497734668E+01 0.53789637245E+01 0.61837303062E+01 0.71715237047E+01
 0.83295973491E+01 0.96149981018E+01 0.10924618640E+02 0.12064902049E+02 0.12838090030E+02
 0.13098116745E+02 0.12789540728E+02 0.11967429011E+02 0.10791986295E+02 0.94970150830E+01
 0.50541475904E+01 0.42381744702E+01 0.42381776162E+01 0.50541526917E+01 0.65335428056E+01
 0.84024896366E+01 0.10323624018E+02 0.11967429302E+02 0.13077771218E+02 0.13515088603E+02
 0.13270916281E+02 0.12455779659E+02 0.11265429672E+02 0.99323350033E+01 0.86526808859E+01
 0.75142767611E+01 0.65549823689E+01 0.57830323826E+01 0.51890844777E+01 0.47581169184E+01
 0.44772074510E+01 0.43384317191E+01 0.43384291300E+01 0.44772040045E+01 0.47581183501E+01
 0.51890884085E+01 0.57830324657E+01 0.65549790149E+01 0.75142762678E+01 0.86526844020E+01
 0.99323360275E+01 0.11265424644E+02 0.12455774276E+02 0.13270917094E+02 0.13515093522E+02
 0.13077773841E+02 0.11967429011E+02 0.10323625133E+02 0.84024922807E+01 0.65335420263E+01
 0.21213846442E+01 0.15753714390E+01 0.21213833598E+01 0.36537285125E+01 0.58819746778E+01
 0.84024925831E+01 0.10791985693E+02 0.12694024065E+02 0.13876779002E+02 0.14255910312E+02
 0.13888494782E+02 0.12945433132E+02 0.11667022979E+02 0.10306751037E+02 0.90364483833E+01
 0.79252891999E+01 0.70026024720E+01 0.62710950089E+01 0.57199350635E+01 0.53357397870E+01
 0.51085982018E+01 0.50333710448E+01 0.51085990093E+01 0.53357400460E+01 0.57199343273E+01
 0.62710944698E+01 0.70026029547E+01 0.79252898203E+01 0.90364481121E+01 0.10306750465E+02
 0.11667023247E+02 0.12945433859E+02 0.13888494586E+02 0.14255909152E+02 0.13876778370E+02
 0.12694024628E+02 0.10791986295E+02 0.84024922807E+01 0.58819743793E+01 0.36537293823E+01
 0.85407617330E-01 0.85402932855E-01 0.13593486678E+01 0.36537248021E+01 0.65335441085E+01
 0.94970195505E+01 0.12089625409E+02 0.13983350208E+02 0.15010751331E+02 0.15163556778E+02
 0.14569503156E+02 0.13453794376E+02 0.12087358619E+02 0.10718468323E+02 0.94729302043E+01
 0.84033119966E+01 0.75288950338E+01 0.68474684838E+01 0.63481264414E+01 0.60203479242E+01
 0.58577321044E+01 0.58577339032E+01 0.60203502624E+01 0.63481252505E+01 0.68474654883E+01
 0.75288949193E+01 0.84033146677E+01 0.94729309988E+01 0.10718465813E+02 0.12087357144E+02
 0.13453797252E+02 0.14569507604E+02 0.15163558234E+02 0.15010749443E+02 0.13983347301E+02
 0.12089621858E+02 0.94970150830E+01 0.65335420263E+01 0.36537293823E+01 0.13593576538E+01
 0.85406988552E-01 0.15753792598E+01 0.42381783573E+01 0.75437170156E+01 0.10905203018E+02
 0.13818808870E+02 0.15943811095E+02 0.17122249755E+02 0.17362458095E+02 0.16807938881E+02
 0.15697194647E+02 0.14312472893E+02 0.12910434499E+02 0.11618999551E+02 0.10493047101E+02
 0.95567059622E+01 0.88139780856E+01 0.82605911048E+01 0.78923590072E+01 0.77080395814E+01
 0.77080385732E+01 0.78923578773E+01 0.82605923039E+01 0.88139803085E+01 0.95567060063E+01
 0.10493044982E+02 0.11618998534E+02 0.12910435936E+02 0.14312474145E+02 0.15697193204E+02