   2   2   0   0
  0.2001288E+02  0.3839590E-09  0.3839590E-09  0.3839590E-09  0.5000000E-15
   1.0000000000000000E-004
  CAR 
 cd Si DFT ground state                  
     17.58496147     -8.49094364  301      5.50448355      1.00000000
     -8.491  0.0000E+00  0.0000E+00
     -8.404  0.0000E+00  0.0000E+00
     -8.317  0.0000E+00  0.0000E+00
     -8.230  0.0000E+00  0.0000E+00
     -8.143  0.0000E+00  0.0000E+00
     -8.056  0.0000E+00  0.0000E+00
     -7.969  0.0000E+00  0.0000E+00
     -7.883  0.0000E+00  0.0000E+00
     -7.796  0.0000E+00  0.0000E+00
     -7.709  0.0000E+00  0.0000E+00
     -7.622  0.0000E+00  0.0000E+00
     -7.535  0.0000E+00  0.0000E+00
     -7.448  0.0000E+00  0.0000E+00
     -7.361  0.0000E+00  0.0000E+00
     -7.274  0.0000E+00  0.0000E+00
     -7.187  0.0000E+00  0.0000E+00
     -7.100  0.0000E+00  0.0000E+00
     -7.013  0.0000E+00  0.0000E+00
     -6.926  0.0000E+00  0.0000E+00
     -6.839  0.0000E+00  0.0000E+00
     -6.753  0.0000E+00  0.0000E+00
     -6.666  0.0000E+00  0.0000E+00
     -6.579  0.0000E+00  0.0000E+00
     -6.492  0.0000E+00  0.0000E+00
     -6.405  0.1302E-01  0.3737E-03
     -6.318  0.5261E-01  0.3034E-02
     -6.231  0.1188E+00  0.1029E-01
     -6.144  0.2115E+00  0.2445E-01
     -6.057  0.2012E+00  0.4300E-01
     -5.970  0.2144E+00  0.6081E-01
     -5.883  0.2381E+00  0.8047E-01
     -5.796  0.2629E+00  0.1022E+00
     -5.710  0.2887E+00  0.1262E+00
     -5.623  0.3158E+00  0.1525E+00
     -5.536  0.3439E+00  0.1811E+00
     -5.449  0.3696E+00  0.2122E+00
     -5.362  0.3902E+00  0.2452E+00
     -5.275  0.4057E+00  0.2798E+00
     -5.188  0.4163E+00  0.3156E+00
     -5.101  0.4353E+00  0.3525E+00
     -5.014  0.4593E+00  0.3914E+00
     -4.927  0.4848E+00  0.4324E+00
     -4.840  0.5118E+00  0.4757E+00
     -4.753  0.5402E+00  0.5214E+00
     -4.666  0.5701E+00  0.5697E+00
     -4.580  0.6015E+00  0.6206E+00
     -4.493  0.6344E+00  0.6743E+00
     -4.406  0.6688E+00  0.7309E+00
     -4.319  0.7286E+00  0.7911E+00
     -4.232  0.8717E+00  0.8600E+00
     -4.145  0.1092E+01  0.9450E+00
     -4.058  0.1069E+01  0.1042E+01
     -3.971  0.8141E+00  0.1121E+01
     -3.884  0.8028E+00  0.1192E+01
     -3.797  0.7913E+00  0.1261E+01
     -3.710  0.7797E+00  0.1329E+01
     -3.623  0.7679E+00  0.1396E+01
     -3.537  0.7560E+00  0.1463E+01
     -3.450  0.7439E+00  0.1528E+01
     -3.363  0.7735E+00  0.1593E+01
     -3.276  0.7338E+00  0.1660E+01
     -3.189  0.6293E+00  0.1719E+01
     -3.102  0.5645E+00  0.1770E+01
     -3.015  0.5008E+00  0.1817E+01
     -2.928  0.4384E+00  0.1858E+01
     -2.841  0.3772E+00  0.1893E+01
     -2.754  0.3171E+00  0.1923E+01
     -2.667  0.2583E+00  0.1948E+01
     -2.580  0.2006E+00  0.1968E+01
     -2.493  0.1442E+00  0.1983E+01
     -2.407  0.8896E-01  0.1993E+01
     -2.320  0.3673E-01  0.1999E+01
     -2.233  0.1707E-01  0.2001E+01
     -2.146  0.6552E-01  0.2004E+01
     -2.059  0.1202E+00  0.2012E+01
     -1.972  0.1769E+00  0.2025E+01
     -1.885  0.2358E+00  0.2043E+01
     -1.798  0.2968E+00  0.2066E+01
     -1.711  0.3598E+00  0.2095E+01
     -1.624  0.4250E+00  0.2129E+01
     -1.537  0.4923E+00  0.2168E+01
     -1.450  0.5666E+00  0.2214E+01
     -1.364  0.6686E+00  0.2268E+01
     -1.277  0.1244E+01  0.2346E+01
     -1.190  0.1627E+01  0.2475E+01
     -1.103  0.1319E+01  0.2608E+01
     -1.016  0.1153E+01  0.2715E+01
     -0.929  0.1021E+01  0.2809E+01
     -0.842  0.9052E+00  0.2893E+01
     -0.755  0.8061E+00  0.2967E+01
     -0.668  0.7237E+00  0.3034E+01
     -0.581  0.6578E+00  0.3094E+01
     -0.494  0.5871E+00  0.3148E+01
     -0.407  0.5109E+00  0.3196E+01
     -0.320  0.4543E+00  0.3237E+01
     -0.234  0.4174E+00  0.3275E+01
     -0.147  0.3992E+00  0.3311E+01
     -0.060  0.3867E+00  0.3345E+01
      0.027  0.3749E+00  0.3378E+01
      0.114  0.3639E+00  0.3410E+01
      0.201  0.3536E+00  0.3441E+01
      0.288  0.3433E+00  0.3471E+01
      0.375  0.3332E+00  0.3501E+01
      0.462  0.3232E+00  0.3529E+01
      0.549  0.3124E+00  0.3557E+01
      0.636  0.3000E+00  0.3584E+01
      0.723  0.2860E+00  0.3609E+01
      0.809  0.2703E+00  0.3633E+01
      0.896  0.2530E+00  0.3656E+01
      0.983  0.2341E+00  0.3677E+01
      1.070  0.2155E+00  0.3697E+01
      1.157  0.2387E+00  0.3716E+01
      1.244  0.3251E+00  0.3740E+01
      1.331  0.4748E+00  0.3774E+01
      1.418  0.6877E+00  0.3824E+01
      1.505  0.9586E+00  0.3896E+01
      1.592  0.1179E+01  0.3989E+01
      1.679  0.1318E+01  0.4098E+01
      1.766  0.1375E+01  0.4216E+01
      1.852  0.2211E+01  0.4357E+01
      1.939  0.1087E+01  0.4470E+01
      2.026  0.1092E+01  0.4565E+01
      2.113  0.1110E+01  0.4661E+01
      2.200  0.1141E+01  0.4758E+01
      2.287  0.1183E+01  0.4859E+01
      2.374  0.1238E+01  0.4964E+01
      2.461  0.1292E+01  0.5075E+01
      2.548  0.1331E+01  0.5189E+01
      2.635  0.1373E+01  0.5306E+01
      2.722  0.1424E+01  0.5427E+01
      2.809  0.1505E+01  0.5555E+01
      2.896  0.1595E+01  0.5689E+01
      2.982  0.1698E+01  0.5833E+01
      3.069  0.1643E+01  0.5979E+01
      3.156  0.1561E+01  0.6118E+01
      3.243  0.1534E+01  0.6253E+01
      3.330  0.1514E+01  0.6385E+01
      3.417  0.1500E+01  0.6516E+01
      3.504  0.1474E+01  0.6646E+01
      3.591  0.1402E+01  0.6771E+01
      3.678  0.1323E+01  0.6889E+01
      3.765  0.1306E+01  0.7003E+01
      3.852  0.1298E+01  0.7116E+01
      3.939  0.1268E+01  0.7228E+01
      4.025  0.1217E+01  0.7336E+01
      4.112  0.1144E+01  0.7439E+01
      4.199  0.1046E+01  0.7534E+01
      4.286  0.8551E+00  0.7618E+01
      4.373  0.6721E+00  0.7683E+01
      4.460  0.5707E+00  0.7737E+01
      4.547  0.5215E+00  0.7784E+01
      4.634  0.4753E+00  0.7827E+01
      4.721  0.4312E+00  0.7867E+01
      4.808  0.3893E+00  0.7903E+01
      4.895  0.3495E+00  0.7935E+01
      4.982  0.2681E+00  0.7962E+01
      5.069  0.1518E+00  0.7979E+01
      5.155  0.9366E-01  0.7990E+01
      5.242  0.4948E-01  0.7996E+01
      5.329  0.1927E-01  0.7999E+01
      5.416  0.3050E-02  0.8000E+01
      5.503  0.0000E+00  0.8000E+01
      5.590  0.0000E+00  0.8000E+01
      5.677  0.0000E+00  0.8000E+01
      5.764  0.0000E+00  0.8000E+01
      5.851  0.0000E+00  0.8000E+01
      5.938  0.0000E+00  0.8000E+01
      6.025  0.0000E+00  0.8000E+01
      6.112  0.0000E+00  0.8000E+01
      6.198  0.1504E-01  0.8000E+01
      6.285  0.1447E+00  0.8007E+01
      6.372  0.2188E+00  0.8024E+01
      6.459  0.2372E+00  0.8044E+01
      6.546  0.2125E+00  0.8063E+01
      6.633  0.2512E+00  0.8083E+01
      6.720  0.2932E+00  0.8107E+01
      6.807  0.3384E+00  0.8135E+01
      6.894  0.3868E+00  0.8166E+01
      6.981  0.4383E+00  0.8202E+01
      7.068  0.5032E+00  0.8242E+01
      7.155  0.6179E+00  0.8291E+01
      7.242  0.7903E+00  0.8352E+01
      7.328  0.1059E+01  0.8431E+01
      7.415  0.1448E+01  0.8539E+01
      7.502  0.1817E+01  0.8683E+01
      7.589  0.1862E+01  0.8844E+01
      7.676  0.1870E+01  0.9006E+01
      7.763  0.1861E+01  0.9169E+01
      7.850  0.1783E+01  0.9329E+01
      7.937  0.1619E+01  0.9476E+01
      8.024  0.1508E+01  0.9612E+01
      8.111  0.1390E+01  0.9738E+01
      8.198  0.1256E+01  0.9852E+01
      8.285  0.1169E+01  0.9958E+01
      8.371  0.1060E+01  0.1005E+02
      8.458  0.9932E+00  0.1014E+02
      8.545  0.9742E+00  0.1023E+02
      8.632  0.9472E+00  0.1031E+02
      8.719  0.9095E+00  0.1039E+02
      8.806  0.8953E+00  0.1047E+02
      8.893  0.1043E+01  0.1055E+02
      8.980  0.1328E+01  0.1066E+02
      9.067  0.1572E+01  0.1078E+02
      9.154  0.1938E+01  0.1093E+02
      9.241  0.2469E+01  0.1113E+02
      9.328  0.2850E+01  0.1136E+02
      9.415  0.3079E+01  0.1162E+02
      9.501  0.3181E+01  0.1189E+02
      9.588  0.2403E+01  0.1215E+02
      9.675  0.1628E+01  0.1229E+02
      9.762  0.1500E+01  0.1243E+02
      9.849  0.1472E+01  0.1256E+02
      9.936  0.1229E+01  0.1268E+02
     10.023  0.8377E+00  0.1277E+02
     10.110  0.7259E+00  0.1283E+02
     10.197  0.7215E+00  0.1290E+02
     10.284  0.7260E+00  0.1296E+02
     10.371  0.7395E+00  0.1302E+02
     10.458  0.7620E+00  0.1309E+02
     10.544  0.7934E+00  0.1315E+02
     10.631  0.7936E+00  0.1322E+02
     10.718  0.7863E+00  0.1329E+02
     10.805  0.7735E+00  0.1336E+02
     10.892  0.7555E+00  0.1343E+02
     10.979  0.6976E+00  0.1349E+02
     11.066  0.6471E+00  0.1355E+02
     11.153  0.6397E+00  0.1360E+02
     11.240  0.6501E+00  0.1366E+02
     11.327  0.6632E+00  0.1372E+02
     11.414  0.6775E+00  0.1378E+02
     11.501  0.6927E+00  0.1383E+02
     11.588  0.7192E+00  0.1390E+02
     11.674  0.7991E+00  0.1396E+02
     11.761  0.8556E+00  0.1403E+02
     11.848  0.8885E+00  0.1411E+02
     11.935  0.1091E+01  0.1419E+02
     12.022  0.1544E+01  0.1430E+02
     12.109  0.2076E+01  0.1446E+02
     12.196  0.2189E+01  0.1465E+02
     12.283  0.2109E+01  0.1484E+02
     12.370  0.2075E+01  0.1502E+02
     12.457  0.1947E+01  0.1519E+02
     12.544  0.1725E+01  0.1535E+02
     12.631  0.1517E+01  0.1550E+02
     12.717  0.1163E+01  0.1561E+02
     12.804  0.8127E+00  0.1570E+02
     12.891  0.5969E+00  0.1576E+02
     12.978  0.3564E+00  0.1580E+02
     13.065  0.3053E+00  0.1583E+02
     13.152  0.2484E+00  0.1585E+02
     13.239  0.1889E+00  0.1587E+02
     13.326  0.1547E+00  0.1588E+02
     13.413  0.1424E+00  0.1590E+02
     13.500  0.1313E+00  0.1591E+02
     13.587  0.1205E+00  0.1592E+02
     13.674  0.1103E+00  0.1593E+02
     13.760  0.1005E+00  0.1594E+02
     13.847  0.9114E-01  0.1595E+02
     13.934  0.8225E-01  0.1595E+02
     14.021  0.7381E-01  0.1596E+02
     14.108  0.6583E-01  0.1597E+02
     14.195  0.5831E-01  0.1597E+02
     14.282  0.5125E-01  0.1598E+02
     14.369  0.4464E-01  0.1598E+02
     14.456  0.3848E-01  0.1599E+02
     14.543  0.3279E-01  0.1599E+02
     14.630  0.2755E-01  0.1599E+02
     14.717  0.2276E-01  0.1599E+02
     14.804  0.1843E-01  0.1600E+02
     14.890  0.1456E-01  0.1600E+02
     14.977  0.1114E-01  0.1600E+02
     15.064  0.8184E-02  0.1600E+02
     15.151  0.5679E-02  0.1600E+02
     15.238  0.3631E-02  0.1600E+02
     15.325  0.2039E-02  0.1600E+02
     15.412  0.9034E-03  0.1600E+02
     15.499  0.2236E-03  0.1600E+02
     15.586  0.0000E+00  0.1600E+02
     15.673  0.0000E+00  0.1600E+02
     15.760  0.0000E+00  0.1600E+02
     15.847  0.0000E+00  0.1600E+02
     15.933  0.0000E+00  0.1600E+02
     16.020  0.0000E+00  0.1600E+02
     16.107  0.0000E+00  0.1600E+02
     16.194  0.0000E+00  0.1600E+02
     16.281  0.0000E+00  0.1600E+02
     16.368  0.0000E+00  0.1600E+02
     16.455  0.0000E+00  0.1600E+02
     16.542  0.0000E+00  0.1600E+02
     16.629  0.0000E+00  0.1600E+02
     16.716  0.0000E+00  0.1600E+02
     16.803  0.0000E+00  0.1600E+02
     16.890  0.0000E+00  0.1600E+02
     16.977  0.0000E+00  0.1600E+02
     17.063  0.0000E+00  0.1600E+02
     17.150  0.0000E+00  0.1600E+02
     17.237  0.0000E+00  0.1600E+02
     17.324  0.0000E+00  0.1600E+02
     17.411  0.0000E+00  0.1600E+02
     17.498  0.0000E+00  0.1600E+02
     17.585  0.0000E+00  0.1600E+02
