    2    2    1    1
  0.2001288E+02  0.3839590E-09  0.3839590E-09  0.3839590E-09  0.5000000E-15
   1.0000000000000000E-004
  CAR 
 cd Si DFT ground state                  
      8     16      8

  0.1262379E-14  0.1262379E-14  0.1262379E-14  0.4629630E-02
      1         -6.490944   1.000000
      2          5.473618   1.000000
      3          5.473619   1.000000
      4          5.473619   1.000000
      5          8.035570   0.000000
      6          8.035570   0.000000
      7          8.035570   0.000000
      8          8.841472   0.000000

  0.1666667E+00  0.1267410E-14  0.1267410E-14  0.3703704E-01
      1         -6.129671   1.000000
      2          3.091675   1.000000
      3          5.022778   1.000000
      4          5.022778   1.000000
      5          7.824605   0.000000
      6          8.683666   0.000000
      7          8.683666   0.000000
      8         10.929173   0.000000

  0.3333333E+00  0.1294631E-14  0.1294631E-14  0.3703704E-01
      1         -5.113772   1.000000
      2          0.137106   1.000000
      3          4.472442   1.000000
      4          4.472442   1.000000
      5          7.236493   0.000000
      6          8.979620   0.000000
      7          8.979622   0.000000
      8         13.343816   0.000000

  0.5000000E+00  0.1265300E-14  0.1265300E-14  0.1851852E-01
      1         -4.158602   1.000000
      2         -1.499135   1.000000
      3          4.274179   1.000000
      4          4.274179   1.000000
      5          7.011057   0.000000
      6          8.812505   0.000000
      7          8.812507   0.000000
      8         13.202757   0.000000

  0.1666667E+00  0.1666667E+00  0.1270793E-14  0.2777778E-01
      1         -6.006712   1.000000
      2          3.435554   1.000000
      3          4.279517   1.000000
      4          4.279518   1.000000
      5          7.176910   0.000000
      6          9.775609   0.000000
      7          9.819513   0.000000
      8          9.819513   0.000000

  0.3333333E+00  0.1666667E+00  0.1277870E-14  0.1111111E+00
      1         -5.191178   1.000000
      2          1.035938   1.000000
      3          3.479554   1.000000
      4          3.726171   1.000000
      5          7.437508   0.000000
      6          9.540439   0.000000
      7          9.997842   0.000000
      8         10.549570   0.000000

  0.5000000E+00  0.1666667E+00  0.1285715E-14  0.1111111E+00
      1         -3.999247   1.000000
      2         -1.134527   1.000000
      3          2.695214   1.000000
      4          3.696072   1.000000
      5          7.514417   0.000000
      6          9.590135   0.000000
      7         10.095422   0.000000
      8         11.896227   0.000000

 -0.3333333E+00  0.1666667E+00  0.1292515E-14  0.1111111E+00
      1         -4.384408   1.000000
      2         -0.534942   1.000000
      3          2.424297   1.000000
      4          4.175471   1.000000
      5          7.924880   0.000000
      6          9.597072   0.000000
      7          9.702960   0.000000
      8         12.769513   0.000000

 -0.1666667E+00  0.1666667E+00  0.1283064E-14  0.5555556E-01
      1         -5.541255   1.000000
      2          1.755389   1.000000
      3          3.059197   1.000000
      4          4.908357   1.000000
      5          8.513988   0.000000
      6          9.031487   0.000000
      7          9.322080   0.000000
      8         11.140638   0.000000

  0.3333333E+00  0.3333333E+00  0.1279207E-14  0.2777778E-01
      1         -4.586175   1.000000
      2          0.461754   1.000000
      3          3.054309   1.000000
      4          3.054309   1.000000
      5          6.198874   0.000000
      6          7.464271   0.000000
      7         12.739147   0.000000
      8         12.739147   0.000000

  0.5000000E+00  0.3333333E+00  0.1281791E-14  0.1111111E+00
      1         -3.421868   1.000000
      2         -1.093419   1.000000
      3          1.839154   1.000000
      4          2.917797   1.000000
      5          6.535043   0.000000
      6          8.190282   0.000000
      7         12.925866   0.000000
      8         12.957098   0.000000

 -0.3333333E+00  0.3333333E+00  0.1275216E-14  0.5555556E-01
      1         -3.225566   1.000000
      2         -1.298696   1.000000
      3          1.057845   1.000000
      4          3.360387   1.000000
      5          7.039329   0.000000
      6         11.276112   0.000000
      7         11.951326   0.000000
      8         12.553225   0.000000

  0.5000000E+00  0.5000000E+00  0.1287622E-14  0.1388889E-01
      1         -2.345309   1.000000
      2         -2.345309   1.000000
      3          2.619518   1.000000
      4          2.619518   1.000000
      5          6.181476   0.000000
      6          6.181478   0.000000
      7         15.584961   0.000000
      8         15.584961   0.000000

  0.5000000E+00  0.3333333E+00  0.1666667E+00  0.1111111E+00
      1         -4.200851   1.000000
      2         -0.171606   1.000000
      3          1.901680   1.000000
      4          3.177119   1.000000
      5          8.326585   0.000000
      6          9.188227   0.000000
      7          9.709330   0.000000
      8         12.541705   0.000000

 -0.3333333E+00  0.3333333E+00  0.1666667E+00  0.1111111E+00
      1         -3.215523   1.000000
      2         -1.371764   1.000000
      3          1.461502   1.000000
      4          2.710051   1.000000
      5          8.828881   0.000000
      6          9.031650   0.000000
      7         11.575837   0.000000
      8         11.994613   0.000000

 -0.3333333E+00  0.5000000E+00  0.1666667E+00  0.5555556E-01
      1         -2.225274   1.000000
      2         -2.225274   1.000000
      3          1.826290   1.000000
      4          1.826290   1.000000
      5          8.222078   0.000000
      6          8.222080   0.000000
      7         12.239111   0.000000
      8         12.239114   0.000000
