Automatically generated mesh
      16
Reciprocal lattice
    0.00000000000000    0.00000000000000    0.00000000000000             1
    0.16666666666667    0.00000000000000    0.00000000000000             8
    0.33333333333334    0.00000000000000    0.00000000000000             8
    0.50000000000000    0.00000000000000    0.00000000000000             4
    0.16666666666667    0.16666666666667    0.00000000000000             6
    0.33333333333334    0.16666666666667    0.00000000000000            24
    0.50000000000000    0.16666666666667    0.00000000000000            24
   -0.33333333333333    0.16666666666667    0.00000000000000            24
   -0.16666666666666    0.16666666666667    0.00000000000000            12
    0.33333333333334    0.33333333333334    0.00000000000000             6
    0.50000000000000    0.33333333333334    0.00000000000000            24
   -0.33333333333333    0.33333333333334    0.00000000000000            12
    0.50000000000000    0.50000000000000    0.00000000000000             3
    0.50000000000000    0.33333333333334    0.16666666666667            24
   -0.33333333333333    0.33333333333334    0.16666666666667            24
   -0.33333333333333    0.50000000000000    0.16666666666667            12
Tetrahedra
        35    0.00077160493827
        48         2         3         6         9
        48         6         8         9        14
        24         8         8         9        14
        48         3         6         8         9
        48         8        12        14        15
        48         7         8        12        15
        24         8         8        12        14
        48         7        11        14        15
        48         6         7        11        14
        48         7        11        12        15
        24         6         6        10        14
        24         5         6         6        10
        48         6        10        11        14
        24         5         6         6         9
        48         2         5         6         9
        48         6         7         8        14
        48         3         6         7         8
        48        11        14        15        16
        24        14        15        15        16
        24        12        14        15        15
        48         7         8        14        15
        24        15        15        16        16
        24        12        15        15        16
        48        11        12        15        16
        24        11        11        14        16
        24        10        11        11        14
        24         6         6         9        14
        24        11        11        12        16
        48         7         7         8        15
        24         2         2         5         9
        48         3         4         7         8
        48         4         7         7         8
        48        11        11        13        16
        24        10        11        11        13
        24         1         2         2         5
