       N       E                     dE             d eps       ncg     rms          rms(c)
DAV:   1     0.446427494444E+01    0.44643E+01   -0.38350E+03   280   0.888E+02
DAV:   2    -0.108070172144E+02   -0.15271E+02   -0.15138E+02   424   0.752E+01
DAV:   3    -0.109991435401E+02   -0.19213E+00   -0.19213E+00   272   0.108E+01
DAV:   4    -0.110047154774E+02   -0.55719E-02   -0.55719E-02   488   0.246E+00
DAV:   5    -0.110047219870E+02   -0.65096E-05   -0.65096E-05   344   0.753E-02    0.304E+00
DAV:   6    -0.108757612681E+02    0.12896E+00   -0.80777E-02   368   0.148E+00    0.181E+00
DAV:   7    -0.108152854102E+02    0.60476E-01   -0.14873E-01   352   0.210E+00    0.152E-01
DAV:   8    -0.108166147254E+02   -0.13293E-02   -0.40590E-03   288   0.521E-01    0.259E-02
DAV:   9    -0.108167320066E+02   -0.11728E-03   -0.22936E-04   432   0.133E-01    0.157E-02
DAV:  10    -0.108167542102E+02   -0.22204E-04   -0.34898E-05   296   0.472E-02    0.188E-03
DAV:  11    -0.108167540185E+02    0.19164E-06   -0.39368E-07   408   0.548E-03    0.447E-04
DAV:  12    -0.108167539273E+02    0.91247E-07   -0.66807E-08   344   0.235E-03    0.559E-05
DAV:  13    -0.108167539034E+02    0.23898E-07   -0.22664E-09   336   0.335E-04    0.183E-05
DAV:  14    -0.108167539172E+02   -0.13772E-07   -0.11569E-10   232   0.118E-04    0.573E-06
DAV:  15    -0.108167539177E+02   -0.54229E-09   -0.17649E-11   240   0.479E-05
   1 F= -.10816754E+02 E0= -.10816754E+02  d E =0.000000E+00
       N       E                     dE             ncg
DAV:   1     0.372369480485E+03   -0.28395E+04      264
DAV:   2     0.985548863931E+02   -0.27381E+03      376
DAV:   3     0.932928968827E+02   -0.52620E+01      320
DAV:   4     0.932205186070E+02   -0.72378E-01      456
DAV:   5     0.932199443231E+02   -0.57428E-03      400
DAV:   6     0.932199381121E+02   -0.62110E-05      480
DAV:   7     0.932199380692E+02   -0.42906E-07      392
DAV:   8     0.932199380680E+02   -0.12265E-08      448
       N       E                     dE             ncg
DAV:   1     0.415737641619E+03   -0.18725E+04      272
DAV:   2     0.126652791716E+03   -0.28908E+03      368
DAV:   3     0.118689016633E+03   -0.79638E+01      320
DAV:   4     0.118567389661E+03   -0.12163E+00      432
DAV:   5     0.118565659073E+03   -0.17306E-02      360
DAV:   6     0.118565638439E+03   -0.20633E-04      432
DAV:   7     0.118565637503E+03   -0.93695E-06      400
DAV:   8     0.118565637498E+03   -0.43457E-08      448
       N       E                     dE             ncg
DAV:   1     0.400907209503E+03   -0.27891E+04      272
DAV:   2     0.102668920137E+03   -0.29824E+03      368
DAV:   3     0.955820226331E+02   -0.70869E+01      304
DAV:   4     0.954509629444E+02   -0.13106E+00      432
DAV:   5     0.954488303625E+02   -0.21326E-02      384
DAV:   6     0.954488200505E+02   -0.10312E-04      464
DAV:   7     0.954488200263E+02   -0.24192E-07      408
DAV:   8     0.954488200262E+02   -0.13074E-09      440
       N       E                     dE             ncg
DAV:   1     0.100276631621E+04   -0.30500E+04      232
DAV:   2     0.854733509916E+03   -0.14803E+03      256
DAV:   3     0.852511768954E+03   -0.22217E+01      280
DAV:   4     0.852483085223E+03   -0.28684E-01      344
DAV:   5     0.852482791316E+03   -0.29391E-03      280
DAV:   6     0.852482777199E+03   -0.14117E-04      312
DAV:   7     0.852482777169E+03   -0.29537E-07      272
DAV:   8     0.852482777169E+03   -0.64074E-09      336
