 vasp.6.5.0 16Dec24 (build Feb 18 2025 08:57:40) complex                         
 executed on             LinuxGNU date 2025.05.31  16:49:22
 running    1 mpi-ranks, with    8 threads/rank, on    1 nodes
 distrk:  each k-point on    1 cores,    1 groups
 distr:  one band on NCORE=   1 cores,    1 groups


--------------------------------------------------------------------------------------------------------


 INCAR:
   SYSTEM = cd Si DFT ground state
   ISMEAR = -5
   EDIFF = 1E-8
   ENCUT = 400

 POTCAR:    PAW_PBE Si_GW 04May2012               
 POTCAR:    PAW_PBE Si_GW 04May2012               
   VRHFIN =Si: s2p2                                                                                 
   LEXCH  = PE                                                                                      
   EATOM  =   103.0669 eV,    7.5752 Ry                                                             
                                                                                                    
   TITEL  = PAW_PBE Si_GW 04May2012                                                                 
   LULTRA =        F    use ultrasoft PP ?                                                          
   IUNSCR =        1    unscreen: 0-lin 1-nonlin 2-no                                               
   RPACOR =    1.500    partial core radius                                                         
   POMASS =   28.085; ZVAL   =    4.000    mass and valenz                                          
   RCORE  =    1.900    outmost cutoff radius                                                       
   RWIGS  =    2.480; RWIGS  =    1.312    wigner-seitz radius (au A)                               
   ENMAX  =  245.345; ENMIN  =  184.009 eV                                                          
   ICORE  =        3    local potential                                                             
   LCOR   =        T    correct aug charges                                                         
   LPAW   =        T    paw PP                                                                      
   EAUG   =  412.952                                                                                
   DEXC   =    0.000                                                                                
   RMAX   =    1.950    core radius for proj-oper                                                   
   RAUG   =    1.300    factor for augmentation sphere                                              
   RDEP   =    1.993    radius for radial grids                                                     
   RDEPT  =    2.000    core radius for aug-charge                                                  
                                                                                                    
   Atomic configuration                                                                             
    7 entries                                                                                       
     n  l   j            E        occ.                                                              
     1  0  0.50     -1785.8828   2.0000                                                             
     2  0  0.50      -139.4969   2.0000                                                             
     2  1  1.50       -95.5546   6.0000                                                             
     3  0  0.50       -10.8127   2.0000                                                             
     3  1  0.50        -4.0811   2.0000                                                             
     3  2  1.50        -4.0817   0.0000                                                             
     4  3  2.50        -4.0817   0.0000                                                             
   Description                                                                                      
     l       E           TYP  RCUT    TYP  RCUT                                                     
     0    -10.8127223     23  1.900                                                                 
     0     95.2407820     23  1.900                                                                 
     1     -4.0811372     23  1.900                                                                 
     1     54.4233040     23  1.900                                                                 
     2     -8.1634956     23  1.900                                                                 
     2     81.6349560     23  1.900                                                                 
     3     27.2116520     23  1.900                                                                 
  local pseudopotential read in
  partial core-charges read in
  partial kinetic energy density read in
  kinetic energy density of atom read in
  atomic valenz-charges read in
  non local Contribution for L=           0  read in
    real space projection operators read in
  non local Contribution for L=           0  read in
    real space projection operators read in
  non local Contribution for L=           1  read in
    real space projection operators read in
  non local Contribution for L=           1  read in
    real space projection operators read in
  non local Contribution for L=           2  read in
    real space projection operators read in
  non local Contribution for L=           2  read in
    real space projection operators read in
    PAW grid and wavefunctions read in

   number of l-projection  operators is LMAX  =           6
   number of lm-projection operators is LMMAX =          18

  PAW_PBE Si_GW 04May2012               :
 energy of atom  1       EATOM= -103.0669
 kinetic energy error for atom=    0.0012 (will be added to EATOM!!)


 POSCAR: cd Si
  positions in cartesian coordinates
  No initial velocities read in


 exchange-correlation table for PE
   RHO(1)=    0.500       N(1)  =     2000
   RHO(2)=  100.500       N(2)  =     4000



--------------------------------------------------------------------------------------------------------


 ion  position               nearest neighbor table
   1  0.000  0.000  0.000-   2 2.35   2 2.35   2 2.35   2 2.35
   2  0.250  0.250  0.250-   1 2.35   1 2.35   1 2.35   1 2.35

  LATTYP: Found a face centered cubic cell.
 ALAT       =     5.4300000000
  
  Lattice vectors:
  
 A1 = (   2.7150000000,   2.7150000000,   0.0000000000)
 A2 = (   0.0000000000,   2.7150000000,   2.7150000000)
 A3 = (   2.7150000000,   0.0000000000,   2.7150000000)


Analysis of symmetry for initial positions (statically):
=====================================================================
 Subroutine PRICEL returns:
 Original cell was already a primitive cell.
 

 Routine SETGRP: Setting up the symmetry group for a 
 face centered cubic supercell.


 Subroutine GETGRP returns: Found 48 space group operations
 (whereof 24 operations were pure point group operations)
 out of a pool of 48 trial point group operations.


The static configuration has the point symmetry T_d .
 The point group associated with its full space group is O_h .


Analysis of symmetry for dynamics (positions and initial velocities):
=====================================================================
 Subroutine PRICEL returns:
 Original cell was already a primitive cell.
 

 Routine SETGRP: Setting up the symmetry group for a 
 face centered cubic supercell.


 Subroutine GETGRP returns: Found 48 space group operations
 (whereof 24 operations were pure point group operations)
 out of a pool of 48 trial point group operations.


The dynamic configuration has the point symmetry T_d .
 The point group associated with its full space group is O_h .


 Subroutine INISYM returns: Found 48 space group operations
 (whereof 24 operations are pure point group operations),
 and found     1 'primitive' translations


----------------------------------------------------------------------------------------

                                     Primitive cell                                     

  volume of cell :      40.0258

  direct lattice vectors                    reciprocal lattice vectors
     2.715000000  2.715000000  0.000000000     0.184162063  0.184162063 -0.184162063
     0.000000000  2.715000000  2.715000000    -0.184162063  0.184162063  0.184162063
     2.715000000  0.000000000  2.715000000     0.184162063 -0.184162063  0.184162063

  length of vectors
     3.839589822  3.839589822  3.839589822     0.318978049  0.318978049  0.318978049

  position of ions in fractional coordinates (direct lattice)
     0.000000000  0.000000000  0.000000000
     0.250000000  0.250000000  0.250000000

  ion indices of the primitive-cell ions
   primitive index   ion index
                 1           1
                 2           2

----------------------------------------------------------------------------------------



 KPOINTS: k mesh                                  

Automatic generation of k-mesh.
 Grid dimensions read from file:
 generate k-points for:    6    6    6

 Generating k-lattice:

  Cartesian coordinates                     Fractional coordinates (reciprocal lattice)
     0.030693677  0.030693677 -0.030693677     0.166666667  0.000000000  0.000000000
    -0.030693677  0.030693677  0.030693677     0.000000000  0.166666667 -0.000000000
     0.030693677 -0.030693677  0.030693677    -0.000000000 -0.000000000  0.166666667

  Length of vectors
     0.053163008  0.053163008  0.053163008

  Shift w.r.t. Gamma in fractional coordinates (k-lattice)
     0.000000000  0.000000000  0.000000000

 TETIRR: Found     35 inequivalent tetrahedra from     1296
 
 Subroutine IBZKPT returns following result:
 ===========================================
 
 Found     16 irreducible k-points:
 
 Following reciprocal coordinates:
            Coordinates               Weight
  0.000000  0.000000  0.000000      1.000000
  0.166667  0.000000  0.000000      8.000000
  0.333333  0.000000  0.000000      8.000000
  0.500000  0.000000  0.000000      4.000000
  0.166667  0.166667  0.000000      6.000000
  0.333333  0.166667  0.000000     24.000000
  0.500000  0.166667  0.000000     24.000000
 -0.333333  0.166667  0.000000     24.000000
 -0.166667  0.166667  0.000000     12.000000
  0.333333  0.333333  0.000000      6.000000
  0.500000  0.333333  0.000000     24.000000
 -0.333333  0.333333  0.000000     12.000000
  0.500000  0.500000  0.000000      3.000000
  0.500000  0.333333  0.166667     24.000000
 -0.333333  0.333333  0.166667     24.000000
 -0.333333  0.500000  0.166667     12.000000
 
 Following cartesian coordinates:
            Coordinates               Weight
  0.000000  0.000000  0.000000      1.000000
  0.166667  0.166667 -0.166667      8.000000
  0.333333  0.333333 -0.333333      8.000000
  0.500000  0.500000 -0.500000      4.000000
  0.000000  0.333333  0.000000      6.000000
  0.166667  0.500000 -0.166667     24.000000
  0.333333  0.666667 -0.333333     24.000000
 -0.500000 -0.166667  0.500000     24.000000
 -0.333333  0.000000  0.333333     12.000000
  0.000000  0.666667  0.000000      6.000000
  0.166667  0.833333 -0.166667     24.000000
 -0.666667  0.000000  0.666667     12.000000
  0.000000  1.000000  0.000000      3.000000
  0.333333  0.666667  0.000000     24.000000
 -0.500000 -0.166667  0.833333     24.000000
 -0.666667  0.000000  1.000000     12.000000
 


--------------------------------------------------------------------------------------------------------




 Dimension of arrays:
   k-points           NKPTS =     16   k-points in BZ     NKDIM =     16   number of bands    NBANDS=      8
   number of dos      NEDOS =    301   number of ions     NIONS =      2
   non local maximal  LDIM  =      6   non local SUM 2l+1 LMDIM =     18
   total plane-waves  NPLWV =   8000
   max r-space proj   IRMAX =      1   max aug-charges    IRDMAX=  10010
   dimension x,y,z NGX =    20 NGY =   20 NGZ =   20
   dimension x,y,z NGXF=    40 NGYF=   40 NGZF=   40
   support grid    NGXF=    40 NGYF=   40 NGZF=   40
   ions per type =               2
   NGX,Y,Z   is equivalent  to a cutoff of   8.66,  8.66,  8.66 a.u.
   NGXF,Y,Z  is equivalent  to a cutoff of  17.32, 17.32, 17.32 a.u.

 SYSTEM =  cd Si DFT ground state                  
 POSCAR =  cd Si                                   

 Startparameter for this run:
   NWRITE =      2    write-flag & timer
   PREC   = normal    normal or accurate (medium, high low for compatibility)
   ISTART =      0    job   : 0-new  1-cont  2-samecut
   ICHARG =      2    charge: 1-file 2-atom 10-const
   ISPIN  =      1    spin polarized calculation?
   LNONCOLLINEAR =      F non collinear calculations
   LSORBIT =      F    spin-orbit coupling
   INIWAV =      1    electr: 0-lowe 1-rand  2-diag
   LASPH  =      F    aspherical Exc in radial PAW
 Electronic Relaxation 1
   ENCUT  =  400.0 eV  29.40 Ry    5.42 a.u.   6.26  6.26  6.26*2*pi/ulx,y,z
   ENINI  =  400.0     initial cutoff
   ENAUG  =  413.0 eV  augmentation charge cutoff
   NELM   =     60;   NELMIN=  2; NELMDL= -5     # of ELM steps 
   EDIFF  = 0.1E-07   stopping-criterion for ELM
   LREAL  =      F    real-space projection
   NLSPLINE    = F    spline interpolate recip. space projectors
   LCOMPAT=      F    compatible to vasp.4.4
   GGA_COMPAT  = T    GGA compatible to vasp.4.4-vasp.4.6
   LMAXPAW     = -100 max onsite density
   LMAXMIX     =    2 max onsite mixed and CHGCAR
   VOSKOWN=      0    Vosko Wilk Nusair interpolation
   ROPT   =    0.00000
 Ionic relaxation
   EDIFFG = 0.1E-06   stopping-criterion for IOM
   NSW    =      0    number of steps for IOM
   NBLOCK =      1;   KBLOCK =      1    inner block; outer block 
   IBRION =     -1    ionic relax: 0-MD 1-quasi-New 2-CG
   NFREE  =      0    steps in history (QN), initial steepest desc. (CG)
   ISIF   =      2    stress and relaxation
   IWAVPR =     10    prediction:  0-non 1-charg 2-wave 3-comb
   ISYM   =      2    0-nonsym 1-usesym 2-fastsym
   LCORR  =      T    Harris-Foulkes like correction to forces

   POTIM  = 0.5000    time-step for ionic-motion
   TEIN   =    0.0    initial temperature
   TEBEG  =    0.0;   TEEND  =   0.0 temperature during run
   SMASS  =  -3.00    Nose mass-parameter (am)
   estimated Nose-frequenzy (Omega)   =  0.10E-29 period in steps = 0.13E+47 mass=  -0.337E-27a.u.
   SCALEE = 1.0000    scale energy and forces
   NPACO  =    256;   APACO  = 10.0  distance and # of slots for P.C.
   PSTRESS=    0.0 pullay stress

  Mass of Ions in am
   POMASS =  28.09
  Ionic Valenz
   ZVAL   =   4.00
  Atomic Wigner-Seitz radii
   RWIGS  =  -1.00
  virtual crystal weights 
   VCA    =   1.00
   NELECT =       8.0000    total number of electrons
   NUPDOWN=      -1.0000    fix difference up-down

 DOS related values:
   EMIN   =  10.00;   EMAX   =-10.00  energy-range for DOS
   EFERMI =   0.00;   METHOD = LEGACY      
   ISMEAR =    -5;   SIGMA  =   0.20  broadening in eV -4-tet -1-fermi 0-gaus
   EFERMI_NEDOS =   21; number of points for ismear=-14 and -15

 Electronic relaxation 2 (details)
   IALGO  =     38    algorithm
   LDIAG  =      T    sub-space diagonalisation (order eigenvalues)
   LSUBROT=      F    optimize rotation matrix (better conditioning)
   TURBO    =      0    0=normal 1=particle mesh
   IRESTART =      0    0=no restart 2=restart with 2 vectors
   NREBOOT  =      0    no. of reboots
   NMIN     =      0    reboot dimension
   EREF     =   0.00    reference energy to select bands
   IMIX   =      4    mixing-type and parameters
     AMIX     =   0.40;   BMIX     =  1.00
     AMIX_MAG =   1.60;   BMIX_MAG =  1.00
     AMIN     =   0.10
     WC   =   100.;   INIMIX=   1;  MIXPRE=   1;  MAXMIX= -45

 Intra band minimization:
   WEIMIN = 0.0000     energy-eigenvalue tresh-hold
   EBREAK =  0.31E-09  absolut break condition
   DEPER  =   0.30     relativ break condition  

   TIME   =   0.40     timestep for ELM

  volume/ion in A,a.u.               =      20.01       135.05
  Fermi-wavevector in a.u.,A,eV,Ry     =   0.957176  1.808800 12.465458  0.916185
  Thomas-Fermi vector in A             =   2.086170

 Write flags
   LWAVE        =      T    write WAVECAR
   LDOWNSAMPLE  =      F    k-point downsampling of WAVECAR
   LCHARG       =      T    write CHGCAR
   LVTOT        =      F    write LOCPOT, total local potential
   LVHAR        =      F    write LOCPOT, Hartree potential only
   WRT_POTENTIAL= false  ! write potential to hdf5 file
   LELF         =      F    write electronic localiz. function (ELF)
   LORBIT       =      0    0 simple, 1 ext, 2 COOP (PROOUT), +10 PAW based schemes


 Python interface
   PLUGINS active      =      F    recompile with -DPLUGINS to activate

 Dipole corrections
   LMONO      =      F    monopole corrections only (constant potential shift)
   LDIPOL     =      F    correct potential (dipole corrections)
   IDIPOL     =      0    1-x, 2-y, 3-z, 4-all directions 
   EPSILON    =  1.0000000 bulk dielectric constant
   LVACPOTAV  =      F  vacuum potentials using an averaging scheme for the charge density
   VACPOTFLAT =  0.1000000 required flatness to determine vacuum potential

Coulomb truncation method
  LTRUNCATE          =      F  Coulomb kernel truncation to be used
  IDIMENSIONALITY    =      3  Dimensionality of cutoff (0 molecules / 2 surfaces)
  ISURFACE           =     -1  Direction of surface normal
  LCOARSEN           =      F  Coarsen the charge grid before padding, preferred


 Exchange correlation treatment:
   GGA     = PE    functional components
   XC_C    = 1    coefficients multiplying the functional components
   LIBXC   =     F    Libxc                    
   VOSKOWN =     0    Vosko Wilk Nusair interpolation
   LHFCALC =     F    Hartree Fock is set to
   LHFONE  =     F    Hartree Fock one center treatment
   AEXX    =    0.0000 exact exchange contribution

 Parameters of functionals:
   PE:
     No parameter

 Van der Waals corrections
   IVDW    =     0    specifies the selected vdW correction

 Linear response parameters
   LEPSILON=     F    determine dielectric tensor
   LRPA    =     F    only Hartree local field effects (RPA)
   LNABLA  =     F    use nabla operator in PAW spheres
   LVEL    =     F    velocity operator in full k-point grid
   CSHIFT  =0.1000    complex shift for real part using Kramers Kronig
   OMEGAMAX=  -1.0    maximum frequency
   DEG_THRESHOLD= 0.2000000E-02 threshold for treating states as degnerate
   RTIME   =   -0.100 relaxation time in fs
  (WPLASMAI=    0.000 imaginary part of plasma frequency in eV, 0.658/RTIME)
   DFIELD  = 0.0000000 0.0000000 0.0000000 field for delta impulse in time

  Optional k-point grid parameters
   LKPOINTS_OPT  =     T    use optional k-point grid
   KPOINTS_OPT_MODE=     1    mode for optional k-point grid

 Orbital magnetization related:
   ORBITALMAG=     F  switch on orbital magnetization
   LCHIMAG   =     F  perturbation theory with respect to B field
   DQ        =  0.001000  dq finite difference perturbation B field
   LLRAUG    =     F  two centre corrections for induced B field
   LBONE     =     F  B-component reconstruction in AE one-centre
   LVGVCALC  =     T  calculate vGv susceptibility
   LVGVAPPL  =     F  apply vGv susceptibility instead of pGv for G=0

 Random number generation:
   RANDOM_GENERATOR = DEFAULT
   PCG_SEED         = not used


--------------------------------------------------------------------------------------------------------


 Static calculation
 charge density and potential will be updated during run
 non-spin polarized calculation
 Variant of blocked Davidson
 Davidson routine will perform the subspace rotation
 perform sub-space diagonalisation
    after iterative eigenvector-optimisation
 modified Broyden-mixing scheme, WC =      100.0
 initial mixing is a Kerker type mixing with AMIX =  0.4000 and BMIX =      1.0000
 Hartree-type preconditioning will be used
 using additional bands            4
 reciprocal scheme for non local part
 use partial core corrections
 calculate Harris-corrections to forces   (improved forces if not selfconsistent)
 use gradient corrections 
 use of overlap-Matrix (Vanderbilt PP)
 Fermi weights with tetrahedron method with Bloechl corrections


--------------------------------------------------------------------------------------------------------


  energy-cutoff  :      400.00
  volume of cell :       40.03
      direct lattice vectors                 reciprocal lattice vectors
     2.715000000  2.715000000  0.000000000     0.184162063  0.184162063 -0.184162063
     0.000000000  2.715000000  2.715000000    -0.184162063  0.184162063  0.184162063
     2.715000000  0.000000000  2.715000000     0.184162063 -0.184162063  0.184162063

  length of vectors
     3.839589822  3.839589822  3.839589822     0.318978049  0.318978049  0.318978049



 k-points in units of 2pi/SCALE and weight: k mesh                                  
   0.00000000  0.00000000  0.00000000       0.005
   0.16666667  0.16666667 -0.16666667       0.037
   0.33333333  0.33333333 -0.33333333       0.037
   0.50000000  0.50000000 -0.50000000       0.019
   0.00000000  0.33333333  0.00000000       0.028
   0.16666667  0.50000000 -0.16666667       0.111
   0.33333333  0.66666667 -0.33333333       0.111
  -0.50000000 -0.16666667  0.50000000       0.111
  -0.33333333  0.00000000  0.33333333       0.056
   0.00000000  0.66666667  0.00000000       0.028
   0.16666667  0.83333333 -0.16666667       0.111
  -0.66666667  0.00000000  0.66666667       0.056
   0.00000000  1.00000000  0.00000000       0.014
   0.33333333  0.66666667  0.00000000       0.111
  -0.50000000 -0.16666667  0.83333333       0.111
  -0.66666667  0.00000000  1.00000000       0.056

 k-points in reciprocal lattice and weights: k mesh                                  
   0.00000000  0.00000000  0.00000000       0.005
   0.16666667  0.00000000  0.00000000       0.037
   0.33333333  0.00000000  0.00000000       0.037
   0.50000000  0.00000000  0.00000000       0.019
   0.16666667  0.16666667  0.00000000       0.028
   0.33333333  0.16666667  0.00000000       0.111
   0.50000000  0.16666667  0.00000000       0.111
  -0.33333333  0.16666667  0.00000000       0.111
  -0.16666667  0.16666667  0.00000000       0.056
   0.33333333  0.33333333  0.00000000       0.028
   0.50000000  0.33333333  0.00000000       0.111
  -0.33333333  0.33333333  0.00000000       0.056
   0.50000000  0.50000000  0.00000000       0.014
   0.50000000  0.33333333  0.16666667       0.111
  -0.33333333  0.33333333  0.16666667       0.111
  -0.33333333  0.50000000  0.16666667       0.056

 position of ions in fractional coordinates (direct lattice) 
   0.00000000  0.00000000  0.00000000
   0.25000000  0.25000000  0.25000000

 position of ions in cartesian coordinates  (Angst):
   0.00000000  0.00000000  0.00000000
   1.35750000  1.35750000  1.35750000



--------------------------------------------------------------------------------------------------------


 k-point     1 :   0.0000 0.0000 0.0000  plane waves:     725
 k-point     2 :   0.1667 0.0000 0.0000  plane waves:     718
 k-point     3 :   0.3333 0.0000 0.0000  plane waves:     745
 k-point     4 :   0.5000 0.0000 0.0000  plane waves:     718
 k-point     5 :   0.1667 0.1667 0.0000  plane waves:     709
 k-point     6 :   0.3333 0.1667 0.0000  plane waves:     731
 k-point     7 :   0.5000 0.1667 0.0000  plane waves:     732
 k-point     8 :  -0.3333 0.1667 0.0000  plane waves:     726
 k-point     9 :  -0.1667 0.1667 0.0000  plane waves:     732
 k-point    10 :   0.3333 0.3333 0.0000  plane waves:     717
 k-point    11 :   0.5000 0.3333 0.0000  plane waves:     729
 k-point    12 :  -0.3333 0.3333 0.0000  plane waves:     718
 k-point    13 :   0.5000 0.5000 0.0000  plane waves:     740
 k-point    14 :   0.5000 0.3333 0.1667  plane waves:     728
 k-point    15 :  -0.3333 0.3333 0.1667  plane waves:     730
 k-point    16 :  -0.3333 0.5000 0.1667  plane waves:     718

 maximum and minimum number of plane-waves per node :       745      709

 maximum number of plane-waves:       745
 maximum index in each direction: 
   IXMAX=    6   IYMAX=    6   IZMAX=    6
   IXMIN=   -6   IYMIN=   -6   IZMIN=   -6


 serial   3D FFT for wavefunctions
 parallel 3D FFT for charge:
    minimum data exchange during FFTs selected (reduces bandwidth)


 total amount of memory used by VASP MPI-rank0    39154. kBytes
=======================================================================

   base                                    :      30000. kBytes
   nonl-proj                               :       1740. kBytes
   fftplans                                :       2284. kBytes
   grid                                    :       3500. kBytes
   one-center                              :         31. kBytes
   wavefun                                 :       1599. kBytes

     INWAV:  cpu time      0.0001: real time      0.0001
 Broyden mixing: mesh for mixing (old mesh)
   NGX = 13   NGY = 13   NGZ = 13
  (NGX  = 40   NGY  = 40   NGZ  = 40)
  gives a total of   2197 points

 initial charge density was supplied:
 charge density of overlapping atoms calculated
 number of electron       8.0000000 magnetization 
 keeping initial charge density in first step


--------------------------------------------------------------------------------------------------------


 Maximum index for augmentation-charges         9597 (set IRDMAX)


--------------------------------------------------------------------------------------------------------


 First call to EWALD:  gamma=   0.518
 Maximum number of real-space cells   3x   3x   3
 Maximum number of reciprocal cells   3x   3x   3

    FEWALD:  cpu time      0.0002: real time      0.0002


--------------------------------------- Ionic step        1  -------------------------------------------




--------------------------------------- Iteration      1(   1)  ---------------------------------------


    POTLOK:  cpu time      0.0226: real time      0.0120
    SETDIJ:  cpu time      0.0039: real time      0.0021
     EDDAV:  cpu time      0.7917: real time      0.4560
 BZINTS: Fermi energy:    9.123084;    8.000000 electrons
         Band energy: 0.150496E+02;  BLOECHL correction:   -0.157540
       DOS:  cpu time      0.0008: real time      0.0014
    --------------------------------------------
      LOOP:  cpu time      0.8191: real time      0.4716

 eigenvalue-minimisations  :   280
 total energy-change (2. order) : 0.4464275E+01  (-0.3835011E+03)
 number of electron       8.0000000 magnetization 
 augmentation part        8.0000000 magnetization 

 Free energy of the ion-electron system (eV)
  ---------------------------------------------------
  alpha Z        PSCENC =         6.08881246
  Ewald energy   TEWEN  =      -228.56352493
  -Hartree energ DENC   =       -11.07014067
  -exchange      EXHF   =         0.00000000
  -V(xc)+E(xc)   XCENC  =       -18.88189550
  PAW double counting   =       176.77094182     -141.06103538
  entropy T*S    EENTRO =         0.00000000
  eigenvalues    EBANDS =        15.04962468
  atomic energy  EATOM  =       206.13149246
  Solvation  Ediel_sol  =         0.00000000
  ---------------------------------------------------
  free energy    TOTEN  =         4.46427494 eV

  energy without entropy =        4.46427494  energy(sigma->0) =        4.46427494


--------------------------------------------------------------------------------------------------------




--------------------------------------- Iteration      1(   2)  ---------------------------------------


     EDDAV:  cpu time      1.1353: real time      0.6608
 BZINTS: Fermi energy:    5.128580;    8.000000 electrons
         Band energy:-0.221667E+00;  BLOECHL correction:    0.000000
       DOS:  cpu time      0.0002: real time      0.0002
    --------------------------------------------
      LOOP:  cpu time      1.1355: real time      0.6610

 eigenvalue-minimisations  :   424
 total energy-change (2. order) :-0.1527129E+02  (-0.1513825E+02)
 number of electron       8.0000000 magnetization 
 augmentation part        8.0000000 magnetization 

 Free energy of the ion-electron system (eV)
  ---------------------------------------------------
  alpha Z        PSCENC =         6.08881246
  Ewald energy   TEWEN  =      -228.56352493
  -Hartree energ DENC   =       -11.07014067
  -exchange      EXHF   =         0.00000000
  -V(xc)+E(xc)   XCENC  =       -18.88189550
  PAW double counting   =       176.77094182     -141.06103538
  entropy T*S    EENTRO =         0.00000000
  eigenvalues    EBANDS =        -0.22166748
  atomic energy  EATOM  =       206.13149246
  Solvation  Ediel_sol  =         0.00000000
  ---------------------------------------------------
  free energy    TOTEN  =       -10.80701721 eV

  energy without entropy =      -10.80701721  energy(sigma->0) =      -10.80701721


--------------------------------------------------------------------------------------------------------




--------------------------------------- Iteration      1(   3)  ---------------------------------------


     EDDAV:  cpu time      0.7804: real time      0.4497
 BZINTS: Fermi energy:    4.916215;    8.000000 electrons
         Band energy:-0.413794E+00;  BLOECHL correction:    0.000000
       DOS:  cpu time      0.0002: real time      0.0002
    --------------------------------------------
      LOOP:  cpu time      0.7807: real time      0.4499

 eigenvalue-minimisations  :   272
 total energy-change (2. order) :-0.1921263E+00  (-0.1921263E+00)
 number of electron       8.0000000 magnetization 
 augmentation part        8.0000000 magnetization 

 Free energy of the ion-electron system (eV)
  ---------------------------------------------------
  alpha Z        PSCENC =         6.08881246
  Ewald energy   TEWEN  =      -228.56352493
  -Hartree energ DENC   =       -11.07014067
  -exchange      EXHF   =         0.00000000
  -V(xc)+E(xc)   XCENC  =       -18.88189550
  PAW double counting   =       176.77094182     -141.06103538
  entropy T*S    EENTRO =         0.00000000
  eigenvalues    EBANDS =        -0.41379380
  atomic energy  EATOM  =       206.13149246
  Solvation  Ediel_sol  =         0.00000000
  ---------------------------------------------------
  free energy    TOTEN  =       -10.99914354 eV

  energy without entropy =      -10.99914354  energy(sigma->0) =      -10.99914354


--------------------------------------------------------------------------------------------------------




--------------------------------------- Iteration      1(   4)  ---------------------------------------


     EDDAV:  cpu time      1.3118: real time      0.7432
 BZINTS: Fermi energy:    4.923638;    8.000000 electrons
         Band energy:-0.419366E+00;  BLOECHL correction:    0.000000
       DOS:  cpu time      0.0002: real time      0.0002
    --------------------------------------------
      LOOP:  cpu time      1.3120: real time      0.7435

 eigenvalue-minimisations  :   488
 total energy-change (2. order) :-0.5571937E-02  (-0.5571937E-02)
 number of electron       8.0000000 magnetization 
 augmentation part        8.0000000 magnetization 

 Free energy of the ion-electron system (eV)
  ---------------------------------------------------
  alpha Z        PSCENC =         6.08881246
  Ewald energy   TEWEN  =      -228.56352493
  -Hartree energ DENC   =       -11.07014067
  -exchange      EXHF   =         0.00000000
  -V(xc)+E(xc)   XCENC  =       -18.88189550
  PAW double counting   =       176.77094182     -141.06103538
  entropy T*S    EENTRO =         0.00000000
  eigenvalues    EBANDS =        -0.41936574
  atomic energy  EATOM  =       206.13149246
  Solvation  Ediel_sol  =         0.00000000
  ---------------------------------------------------
  free energy    TOTEN  =       -11.00471548 eV

  energy without entropy =      -11.00471548  energy(sigma->0) =      -11.00471548


--------------------------------------------------------------------------------------------------------




--------------------------------------- Iteration      1(   5)  ---------------------------------------


     EDDAV:  cpu time      0.9655: real time      0.5572
 BZINTS: Fermi energy:    4.907939;    8.000000 electrons
         Band energy:-0.419372E+00;  BLOECHL correction:    0.000000
       DOS:  cpu time      0.0002: real time      0.0002
    CHARGE:  cpu time      0.0400: real time      0.0263
    MIXING:  cpu time      0.0007: real time      0.0004
    --------------------------------------------
      LOOP:  cpu time      1.0063: real time      0.5840

 eigenvalue-minimisations  :   344
 total energy-change (2. order) :-0.6509635E-05  (-0.6509635E-05)
 number of electron       7.9999998 magnetization 
 augmentation part       -0.4859645 magnetization 

 Broyden mixing:
  rms(total) = 0.30416E+00    rms(broyden)= 0.30416E+00
  rms(prec ) = 0.87677E+00
  weight for this iteration     100.00

 Free energy of the ion-electron system (eV)
  ---------------------------------------------------
  alpha Z        PSCENC =         6.08881246
  Ewald energy   TEWEN  =      -228.56352493
  -Hartree energ DENC   =       -11.07014067
  -exchange      EXHF   =         0.00000000
  -V(xc)+E(xc)   XCENC  =       -18.88189550
  PAW double counting   =       176.77094182     -141.06103538
  entropy T*S    EENTRO =         0.00000000
  eigenvalues    EBANDS =        -0.41937225
  atomic energy  EATOM  =       206.13149246
  Solvation  Ediel_sol  =         0.00000000
  ---------------------------------------------------
  free energy    TOTEN  =       -11.00472199 eV

  energy without entropy =      -11.00472199  energy(sigma->0) =      -11.00472199


--------------------------------------------------------------------------------------------------------




--------------------------------------- Iteration      1(   6)  ---------------------------------------


    POTLOK:  cpu time      0.0223: real time      0.0100
    SETDIJ:  cpu time      0.0031: real time      0.0015
     EDDAV:  cpu time      0.9802: real time      0.6132
 BZINTS: Fermi energy:    5.169213;    8.000000 electrons
         Band energy: 0.107520E+01;  BLOECHL correction:    0.000000
       DOS:  cpu time      0.0002: real time      0.0002
    CHARGE:  cpu time      0.0409: real time      0.0263
    MIXING:  cpu time      0.0009: real time      0.0019
    --------------------------------------------
      LOOP:  cpu time      1.0475: real time      0.6531

 eigenvalue-minimisations  :   368
 total energy-change (2. order) : 0.1289607E+00  (-0.8077664E-02)
 number of electron       7.9999998 magnetization 
 augmentation part       -0.4806667 magnetization 

 Broyden mixing:
  rms(total) = 0.18064E+00    rms(broyden)= 0.18064E+00
  rms(prec ) = 0.51738E+00
  weight for this iteration     100.00

 eigenvalues of (default mixing * dielectric matrix)
  average eigenvalue GAMMA=   2.4429
  2.4429

 Free energy of the ion-electron system (eV)
  ---------------------------------------------------
  alpha Z        PSCENC =         6.08881246
  Ewald energy   TEWEN  =      -228.56352493
  -Hartree energ DENC   =       -12.55906555
  -exchange      EXHF   =         0.00000000
  -V(xc)+E(xc)   XCENC  =       -18.63688507
  PAW double counting   =       210.72830354     -175.14009905
  entropy T*S    EENTRO =         0.00000000
  eigenvalues    EBANDS =         1.07520488
  atomic energy  EATOM  =       206.13149246
  Solvation  Ediel_sol  =         0.00000000
  ---------------------------------------------------
  free energy    TOTEN  =       -10.87576127 eV

  energy without entropy =      -10.87576127  energy(sigma->0) =      -10.87576127


--------------------------------------------------------------------------------------------------------




--------------------------------------- Iteration      1(   7)  ---------------------------------------


    POTLOK:  cpu time      0.0225: real time      0.0102
    SETDIJ:  cpu time      0.0031: real time      0.0015
     EDDAV:  cpu time      0.9831: real time      0.5901
 BZINTS: Fermi energy:    5.513021;    8.000000 electrons
         Band energy: 0.330750E+01;  BLOECHL correction:    0.000000
       DOS:  cpu time      0.0003: real time      0.0002
    CHARGE:  cpu time      0.0413: real time      0.0417
    MIXING:  cpu time      0.0007: real time      0.0004
    --------------------------------------------
      LOOP:  cpu time      1.0509: real time      0.6441

 eigenvalue-minimisations  :   352
 total energy-change (2. order) : 0.6047586E-01  (-0.1487328E-01)
 number of electron       7.9999998 magnetization 
 augmentation part       -0.4738611 magnetization 

 Broyden mixing:
  rms(total) = 0.15168E-01    rms(broyden)= 0.15168E-01
  rms(prec ) = 0.40636E-01
  weight for this iteration     100.00

 eigenvalues of (default mixing * dielectric matrix)
  average eigenvalue GAMMA=   2.4690
  2.4690  2.4690

 Free energy of the ion-electron system (eV)
  ---------------------------------------------------
  alpha Z        PSCENC =         6.08881246
  Ewald energy   TEWEN  =      -228.56352493
  -Hartree energ DENC   =       -14.96999647
  -exchange      EXHF   =         0.00000000
  -V(xc)+E(xc)   XCENC  =       -18.22854045
  PAW double counting   =       262.44968101     -227.03070612
  entropy T*S    EENTRO =         0.00000000
  eigenvalues    EBANDS =         3.30749663
  atomic energy  EATOM  =       206.13149246
  Solvation  Ediel_sol  =         0.00000000
  ---------------------------------------------------
  free energy    TOTEN  =       -10.81528541 eV

  energy without entropy =      -10.81528541  energy(sigma->0) =      -10.81528541


--------------------------------------------------------------------------------------------------------




--------------------------------------- Iteration      1(   8)  ---------------------------------------


    POTLOK:  cpu time      0.0238: real time      0.0127
    SETDIJ:  cpu time      0.0038: real time      0.0022
     EDDAV:  cpu time      0.8174: real time      0.5085
 BZINTS: Fermi energy:    5.501397;    8.000000 electrons
         Band energy: 0.324358E+01;  BLOECHL correction:    0.000000
       DOS:  cpu time      0.0003: real time      0.0003
    CHARGE:  cpu time      0.0417: real time      0.0274
    MIXING:  cpu time      0.0007: real time      0.0004
    --------------------------------------------
      LOOP:  cpu time      0.8875: real time      0.5514

 eigenvalue-minimisations  :   288
 total energy-change (2. order) :-0.1329315E-02  (-0.4058983E-03)
 number of electron       7.9999998 magnetization 
 augmentation part       -0.4744127 magnetization 

 Broyden mixing:
  rms(total) = 0.25911E-02    rms(broyden)= 0.25910E-02
  rms(prec ) = 0.84935E-02
  weight for this iteration     100.00

 eigenvalues of (default mixing * dielectric matrix)
  average eigenvalue GAMMA=   2.1232
  1.3593  2.8120  2.1984

 Free energy of the ion-electron system (eV)
  ---------------------------------------------------
  alpha Z        PSCENC =         6.08881246
  Ewald energy   TEWEN  =      -228.56352493
  -Hartree energ DENC   =       -14.93916063
  -exchange      EXHF   =         0.00000000
  -V(xc)+E(xc)   XCENC  =       -18.21413242
  PAW double counting   =       258.48664133     -223.05032772
  entropy T*S    EENTRO =         0.00000000
  eigenvalues    EBANDS =         3.24358473
  atomic energy  EATOM  =       206.13149246
  Solvation  Ediel_sol  =         0.00000000
  ---------------------------------------------------
  free energy    TOTEN  =       -10.81661473 eV

  energy without entropy =      -10.81661473  energy(sigma->0) =      -10.81661473


--------------------------------------------------------------------------------------------------------




--------------------------------------- Iteration      1(   9)  ---------------------------------------


    POTLOK:  cpu time      0.0221: real time      0.0106
    SETDIJ:  cpu time      0.0032: real time      0.0015
     EDDAV:  cpu time      1.1211: real time      0.6440
 BZINTS: Fermi energy:    5.503794;    8.000000 electrons
         Band energy: 0.327555E+01;  BLOECHL correction:    0.000000
       DOS:  cpu time      0.0002: real time      0.0002
    CHARGE:  cpu time      0.0386: real time      0.0255
    MIXING:  cpu time      0.0007: real time      0.0004
    --------------------------------------------
      LOOP:  cpu time      1.1859: real time      0.6823

 eigenvalue-minimisations  :   432
 total energy-change (2. order) :-0.1172812E-03  (-0.2293597E-04)
 number of electron       7.9999998 magnetization 
 augmentation part       -0.4743911 magnetization 

 Broyden mixing:
  rms(total) = 0.15741E-02    rms(broyden)= 0.15741E-02
  rms(prec ) = 0.38228E-02
  weight for this iteration     100.00

 eigenvalues of (default mixing * dielectric matrix)
  average eigenvalue GAMMA=   2.2457
  0.9921  3.1195  2.6749  2.1964

 Free energy of the ion-electron system (eV)
  ---------------------------------------------------
  alpha Z        PSCENC =         6.08881246
  Ewald energy   TEWEN  =      -228.56352493
  -Hartree energ DENC   =       -14.97796758
  -exchange      EXHF   =         0.00000000
  -V(xc)+E(xc)   XCENC  =       -18.20682115
  PAW double counting   =       258.64963418     -223.21390411
  entropy T*S    EENTRO =         0.00000000
  eigenvalues    EBANDS =         3.27554666
  atomic energy  EATOM  =       206.13149246
  Solvation  Ediel_sol  =         0.00000000
  ---------------------------------------------------
  free energy    TOTEN  =       -10.81673201 eV

  energy without entropy =      -10.81673201  energy(sigma->0) =      -10.81673201


--------------------------------------------------------------------------------------------------------




--------------------------------------- Iteration      1(  10)  ---------------------------------------


    POTLOK:  cpu time      0.0218: real time      0.0107
    SETDIJ:  cpu time      0.0033: real time      0.0016
     EDDAV:  cpu time      0.8536: real time      0.4986
 BZINTS: Fermi energy:    5.504446;    8.000000 electrons
         Band energy: 0.328266E+01;  BLOECHL correction:    0.000000
       DOS:  cpu time      0.0002: real time      0.0002
    CHARGE:  cpu time      0.0450: real time      0.0283
    MIXING:  cpu time      0.0008: real time      0.0004
    --------------------------------------------
      LOOP:  cpu time      0.9247: real time      0.5398

 eigenvalue-minimisations  :   296
 total energy-change (2. order) :-0.2220355E-04  (-0.3489752E-05)
 number of electron       7.9999998 magnetization 
 augmentation part       -0.4743629 magnetization 

 Broyden mixing:
  rms(total) = 0.18804E-03    rms(broyden)= 0.18803E-03
  rms(prec ) = 0.39878E-03
  weight for this iteration     100.00

 eigenvalues of (default mixing * dielectric matrix)
  average eigenvalue GAMMA=   2.0181
  3.1453  2.5671  2.2043  0.9869  1.1871

 Free energy of the ion-electron system (eV)
  ---------------------------------------------------
  alpha Z        PSCENC =         6.08881246
  Ewald energy   TEWEN  =      -228.56352493
  -Hartree energ DENC   =       -14.98467596
  -exchange      EXHF   =         0.00000000
  -V(xc)+E(xc)   XCENC  =       -18.20747171
  PAW double counting   =       258.32818422     -222.89222788
  entropy T*S    EENTRO =         0.00000000
  eigenvalues    EBANDS =         3.28265714
  atomic energy  EATOM  =       206.13149246
  Solvation  Ediel_sol  =         0.00000000
  ---------------------------------------------------
  free energy    TOTEN  =       -10.81675421 eV

  energy without entropy =      -10.81675421  energy(sigma->0) =      -10.81675421


--------------------------------------------------------------------------------------------------------




--------------------------------------- Iteration      1(  11)  ---------------------------------------


    POTLOK:  cpu time      0.0219: real time      0.0105
    SETDIJ:  cpu time      0.0036: real time      0.0020
     EDDAV:  cpu time      1.0609: real time      0.6172
 BZINTS: Fermi energy:    5.504502;    8.000000 electrons
         Band energy: 0.328339E+01;  BLOECHL correction:    0.000000
       DOS:  cpu time      0.0002: real time      0.0002
    CHARGE:  cpu time      0.0400: real time      0.0259
    MIXING:  cpu time      0.0007: real time      0.0004
    --------------------------------------------
      LOOP:  cpu time      1.1273: real time      0.6562

 eigenvalue-minimisations  :   408
 total energy-change (2. order) : 0.1916357E-06  (-0.3936811E-07)
 number of electron       7.9999998 magnetization 
 augmentation part       -0.4743637 magnetization 

 Broyden mixing:
  rms(total) = 0.44664E-04    rms(broyden)= 0.44658E-04
  rms(prec ) = 0.90469E-04
  weight for this iteration     100.00

 eigenvalues of (default mixing * dielectric matrix)
  average eigenvalue GAMMA=   2.1102
  3.2735  2.7493  2.4754  2.1848  0.9891  0.9891

 Free energy of the ion-electron system (eV)
  ---------------------------------------------------
  alpha Z        PSCENC =         6.08881246
  Ewald energy   TEWEN  =      -228.56352493
  -Hartree energ DENC   =       -14.98569033
  -exchange      EXHF   =         0.00000000
  -V(xc)+E(xc)   XCENC  =       -18.20716725
  PAW double counting   =       258.37551763     -222.93957929
  entropy T*S    EENTRO =         0.00000000
  eigenvalues    EBANDS =         3.28338523
  atomic energy  EATOM  =       206.13149246
  Solvation  Ediel_sol  =         0.00000000
  ---------------------------------------------------
  free energy    TOTEN  =       -10.81675402 eV

  energy without entropy =      -10.81675402  energy(sigma->0) =      -10.81675402


--------------------------------------------------------------------------------------------------------




--------------------------------------- Iteration      1(  12)  ---------------------------------------


    POTLOK:  cpu time      0.0222: real time      0.0108
    SETDIJ:  cpu time      0.0034: real time      0.0016
     EDDAV:  cpu time      0.9192: real time      0.5305
 BZINTS: Fermi energy:    5.504498;    8.000000 electrons
         Band energy: 0.328347E+01;  BLOECHL correction:    0.000000
       DOS:  cpu time      0.0002: real time      0.0002
    CHARGE:  cpu time      0.0395: real time      0.0256
    MIXING:  cpu time      0.0007: real time      0.0004
    --------------------------------------------
      LOOP:  cpu time      0.9853: real time      0.5692

 eigenvalue-minimisations  :   344
 total energy-change (2. order) : 0.9124670E-07  (-0.6680745E-08)
 number of electron       7.9999998 magnetization 
 augmentation part       -0.4743623 magnetization 

 Broyden mixing:
  rms(total) = 0.55902E-05    rms(broyden)= 0.55876E-05
  rms(prec ) = 0.19494E-04
  weight for this iteration     100.00

 eigenvalues of (default mixing * dielectric matrix)
  average eigenvalue GAMMA=   1.9511
  3.2483  2.7288  2.5284  2.2099  0.9981  0.9981  0.9461

 Free energy of the ion-electron system (eV)
  ---------------------------------------------------
  alpha Z        PSCENC =         6.08881246
  Ewald energy   TEWEN  =      -228.56352493
  -Hartree energ DENC   =       -14.98580730
  -exchange      EXHF   =         0.00000000
  -V(xc)+E(xc)   XCENC  =       -18.20718941
  PAW double counting   =       258.38931888     -222.95332840
  entropy T*S    EENTRO =         0.00000000
  eigenvalues    EBANDS =         3.28347232
  atomic energy  EATOM  =       206.13149246
  Solvation  Ediel_sol  =         0.00000000
  ---------------------------------------------------
  free energy    TOTEN  =       -10.81675393 eV

  energy without entropy =      -10.81675393  energy(sigma->0) =      -10.81675393


--------------------------------------------------------------------------------------------------------




--------------------------------------- Iteration      1(  13)  ---------------------------------------


    POTLOK:  cpu time      0.0209: real time      0.0106
    SETDIJ:  cpu time      0.0031: real time      0.0015
     EDDAV:  cpu time      0.9630: real time      0.5557
 BZINTS: Fermi energy:    5.504482;    8.000000 electrons
         Band energy: 0.328336E+01;  BLOECHL correction:    0.000000
       DOS:  cpu time      0.0002: real time      0.0002
    CHARGE:  cpu time      0.0405: real time      0.0267
    MIXING:  cpu time      0.0008: real time      0.0005
    --------------------------------------------
      LOOP:  cpu time      1.0285: real time      0.5952

 eigenvalue-minimisations  :   336
 total energy-change (2. order) : 0.2389845E-07  (-0.2266403E-09)
 number of electron       7.9999998 magnetization 
 augmentation part       -0.4743628 magnetization 

 Broyden mixing:
  rms(total) = 0.18277E-05    rms(broyden)= 0.18272E-05
  rms(prec ) = 0.41550E-05
  weight for this iteration     100.00

 eigenvalues of (default mixing * dielectric matrix)
  average eigenvalue GAMMA=   2.0659
  3.2293  2.9524  2.6738  2.2335  2.4206  0.9804  1.0127  1.0246

 Free energy of the ion-electron system (eV)
  ---------------------------------------------------
  alpha Z        PSCENC =         6.08881246
  Ewald energy   TEWEN  =      -228.56352493
  -Hartree energ DENC   =       -14.98570122
  -exchange      EXHF   =         0.00000000
  -V(xc)+E(xc)   XCENC  =       -18.20719267
  PAW double counting   =       258.38728674     -222.95128633
  entropy T*S    EENTRO =         0.00000000
  eigenvalues    EBANDS =         3.28335958
  atomic energy  EATOM  =       206.13149246
  Solvation  Ediel_sol  =         0.00000000
  ---------------------------------------------------
  free energy    TOTEN  =       -10.81675390 eV

  energy without entropy =      -10.81675390  energy(sigma->0) =      -10.81675390


--------------------------------------------------------------------------------------------------------




--------------------------------------- Iteration      1(  14)  ---------------------------------------


    POTLOK:  cpu time      0.0220: real time      0.0105
    SETDIJ:  cpu time      0.0033: real time      0.0016
     EDDAV:  cpu time      0.7123: real time      0.4359
 BZINTS: Fermi energy:    5.504485;    8.000000 electrons
         Band energy: 0.328339E+01;  BLOECHL correction:    0.000000
       DOS:  cpu time      0.0002: real time      0.0002
    CHARGE:  cpu time      0.0404: real time      0.0257
    MIXING:  cpu time      0.0010: real time      0.0007
    --------------------------------------------
      LOOP:  cpu time      0.7792: real time      0.4746

 eigenvalue-minimisations  :   232
 total energy-change (2. order) :-0.1377225E-07  (-0.1156945E-10)
 number of electron       7.9999998 magnetization 
 augmentation part       -0.4743627 magnetization 

 Broyden mixing:
  rms(total) = 0.57318E-06    rms(broyden)= 0.57310E-06
  rms(prec ) = 0.14995E-05
  weight for this iteration     100.00

 eigenvalues of (default mixing * dielectric matrix)
  average eigenvalue GAMMA=   1.9330
  3.2340  2.9229  2.2100  2.6860  2.5046  1.0167  1.0167  0.9694  0.8366

 Free energy of the ion-electron system (eV)
  ---------------------------------------------------
  alpha Z        PSCENC =         6.08881246
  Ewald energy   TEWEN  =      -228.56352493
  -Hartree energ DENC   =       -14.98572425
  -exchange      EXHF   =         0.00000000
  -V(xc)+E(xc)   XCENC  =       -18.20719015
  PAW double counting   =       258.38728294     -222.95128904
  entropy T*S    EENTRO =         0.00000000
  eigenvalues    EBANDS =         3.28338659
  atomic energy  EATOM  =       206.13149246
  Solvation  Ediel_sol  =         0.00000000
  ---------------------------------------------------
  free energy    TOTEN  =       -10.81675392 eV

  energy without entropy =      -10.81675392  energy(sigma->0) =      -10.81675392


--------------------------------------------------------------------------------------------------------




--------------------------------------- Iteration      1(  15)  ---------------------------------------


    POTLOK:  cpu time      0.0217: real time      0.0097
    SETDIJ:  cpu time      0.0032: real time      0.0016
     EDDAV:  cpu time      0.7363: real time      0.4202
 BZINTS: Fermi energy:    5.504484;    8.000000 electrons
         Band energy: 0.328338E+01;  BLOECHL correction:    0.000000
       DOS:  cpu time      0.0002: real time      0.0002
    --------------------------------------------
      LOOP:  cpu time      0.7616: real time      0.4319

 eigenvalue-minimisations  :   240
 total energy-change (2. order) :-0.5422862E-09  (-0.1764917E-11)
 number of electron       7.9999998 magnetization 
 augmentation part       -0.4743627 magnetization 

 Free energy of the ion-electron system (eV)
  ---------------------------------------------------
  alpha Z        PSCENC =         6.08881246
  Ewald energy   TEWEN  =      -228.56352493
  -Hartree energ DENC   =       -14.98571770
  -exchange      EXHF   =         0.00000000
  -V(xc)+E(xc)   XCENC  =       -18.20719087
  PAW double counting   =       258.38700303     -222.95100894
  entropy T*S    EENTRO =         0.00000000
  eigenvalues    EBANDS =         3.28338058
  atomic energy  EATOM  =       206.13149246
  Solvation  Ediel_sol  =         0.00000000
  ---------------------------------------------------
  free energy    TOTEN  =       -10.81675392 eV

  energy without entropy =      -10.81675392  energy(sigma->0) =      -10.81675392


--------------------------------------------------------------------------------------------------------




 average (electrostatic) potential at core
  the test charge radii are     1.1243
  (the norm of the test charge is              1.0000)
       1 -67.0299       2 -67.0299



 E-fermi :   5.5045     XC(G=0):  -9.3946     alpha+bet :-11.6158

 val. band max:        5.4736189458   @ k =   0.0000   0.0000   0.0000
 cond. band min:       6.1814764844   @ k =   0.5000   0.5000   0.0000
 fundamental gap:      0.7078575387
 Fermi energy:         5.5044835546

 k-point     1 :       0.0000    0.0000    0.0000
  band No.  band energies     occupation 
      1      -6.4909      2.00000
      2       5.4736      2.00000
      3       5.4736      2.00000
      4       5.4736      2.00000
      5       8.0356      0.00000
      6       8.0356      0.00000
      7       8.0356      0.00000
      8       8.8415      0.00000

 k-point     2 :       0.1667    0.0000    0.0000
  band No.  band energies     occupation 
      1      -6.1297      2.00000
      2       3.0917      2.00000
      3       5.0228      2.00000
      4       5.0228      2.00000
      5       7.8246      0.00000
      6       8.6837      0.00000
      7       8.6837      0.00000
      8      10.9292      0.00000

 k-point     3 :       0.3333    0.0000    0.0000
  band No.  band energies     occupation 
      1      -5.1138      2.00000
      2       0.1371      2.00000
      3       4.4724      2.00000
      4       4.4724      2.00000
      5       7.2365      0.00000
      6       8.9796      0.00000
      7       8.9796      0.00000
      8      13.3438      0.00000

 k-point     4 :       0.5000    0.0000    0.0000
  band No.  band energies     occupation 
      1      -4.1586      2.00000
      2      -1.4991      2.00000
      3       4.2742      2.00000
      4       4.2742      2.00000
      5       7.0111      0.00000
      6       8.8125      0.00000
      7       8.8125      0.00000
      8      13.2028      0.00000

 k-point     5 :       0.1667    0.1667    0.0000
  band No.  band energies     occupation 
      1      -6.0067      2.00000
      2       3.4356      2.00000
      3       4.2795      2.00000
      4       4.2795      2.00000
      5       7.1769      0.00000
      6       9.7756      0.00000
      7       9.8195      0.00000
      8       9.8195      0.00000

 k-point     6 :       0.3333    0.1667    0.0000
  band No.  band energies     occupation 
      1      -5.1912      2.00000
      2       1.0359      2.00000
      3       3.4796      2.00000
      4       3.7262      2.00000
      5       7.4375      0.00000
      6       9.5404      0.00000
      7       9.9978      0.00000
      8      10.5496      0.00000

 k-point     7 :       0.5000    0.1667    0.0000
  band No.  band energies     occupation 
      1      -3.9992      2.00000
      2      -1.1345      2.00000
      3       2.6952      2.00000
      4       3.6961      2.00000
      5       7.5144      0.00000
      6       9.5901      0.00000
      7      10.0954      0.00000
      8      11.8962      0.00000

 k-point     8 :      -0.3333    0.1667    0.0000
  band No.  band energies     occupation 
      1      -4.3844      2.00000
      2      -0.5349      2.00000
      3       2.4243      2.00000
      4       4.1755      2.00000
      5       7.9249      0.00000
      6       9.5971      0.00000
      7       9.7030      0.00000
      8      12.7695      0.00000

 k-point     9 :      -0.1667    0.1667    0.0000
  band No.  band energies     occupation 
      1      -5.5413      2.00000
      2       1.7554      2.00000
      3       3.0592      2.00000
      4       4.9084      2.00000
      5       8.5140      0.00000
      6       9.0315      0.00000
      7       9.3221      0.00000
      8      11.1406      0.00000

 k-point    10 :       0.3333    0.3333    0.0000
  band No.  band energies     occupation 
      1      -4.5862      2.00000
      2       0.4618      2.00000
      3       3.0543      2.00000
      4       3.0543      2.00000
      5       6.1989      0.00000
      6       7.4643      0.00000
      7      12.7391      0.00000
      8      12.7391      0.00000

 k-point    11 :       0.5000    0.3333    0.0000
  band No.  band energies     occupation 
      1      -3.4219      2.00000
      2      -1.0934      2.00000
      3       1.8392      2.00000
      4       2.9178      2.00000
      5       6.5350      0.00000
      6       8.1903      0.00000
      7      12.9259      0.00000
      8      12.9571      0.00000

 k-point    12 :      -0.3333    0.3333    0.0000
  band No.  band energies     occupation 
      1      -3.2256      2.00000
      2      -1.2987      2.00000
      3       1.0578      2.00000
      4       3.3604      2.00000
      5       7.0393      0.00000
      6      11.2761      0.00000
      7      11.9513      0.00000
      8      12.5532      0.00000

 k-point    13 :       0.5000    0.5000    0.0000
  band No.  band energies     occupation 
      1      -2.3453      2.00000
      2      -2.3453      2.00000
      3       2.6195      2.00000
      4       2.6195      2.00000
      5       6.1815      0.00000
      6       6.1815      0.00000
      7      15.5850      0.00000
      8      15.5850      0.00000

 k-point    14 :       0.5000    0.3333    0.1667
  band No.  band energies     occupation 
      1      -4.2009      2.00000
      2      -0.1716      2.00000
      3       1.9017      2.00000
      4       3.1771      2.00000
      5       8.3266      0.00000
      6       9.1882      0.00000
      7       9.7093      0.00000
      8      12.5417      0.00000

 k-point    15 :      -0.3333    0.3333    0.1667
  band No.  band energies     occupation 
      1      -3.2155      2.00000
      2      -1.3718      2.00000
      3       1.4615      2.00000
      4       2.7101      2.00000
      5       8.8289      0.00000
      6       9.0317      0.00000
      7      11.5758      0.00000
      8      11.9946      0.00000

 k-point    16 :      -0.3333    0.5000    0.1667
  band No.  band energies     occupation 
      1      -2.2253      2.00000
      2      -2.2253      2.00000
      3       1.8263      2.00000
      4       1.8263      2.00000
      5       8.2221      0.00000
      6       8.2221      0.00000
      7      12.2391      0.00000
      8      12.2391      0.00000


--------------------------------------------------------------------------------------------------------


 soft charge-density along one line, spin component           1
         0         1         2         3         4         5         6         7         8         9
 total charge-density along one line

 pseudopotential strength for first ion, spin component:           1
 17.059 -18.266  -0.000  -0.000  -0.000   0.000   0.000   0.000
-18.266  50.853   0.000   0.000   0.000  -0.000  -0.000  -0.000
 -0.000   0.000   3.851   0.000   0.000 -11.260  -0.000  -0.000
 -0.000   0.000   0.000   3.851   0.000  -0.000 -11.260  -0.000
 -0.000   0.000   0.000   0.000   3.851  -0.000  -0.000 -11.260
  0.000  -0.000 -11.260  -0.000  -0.000  35.874   0.000   0.000
  0.000  -0.000  -0.000 -11.260  -0.000   0.000  35.874   0.000
  0.000  -0.000  -0.000  -0.000 -11.260   0.000   0.000  35.874
  0.000   0.000  -0.000   0.002  -0.000   0.000  -0.004   0.000
  0.000   0.000  -0.000  -0.000   0.002   0.000   0.000  -0.004
 -0.000  -0.000  -0.000   0.000  -0.000   0.000  -0.000   0.000
  0.000   0.000   0.002  -0.000  -0.000  -0.004   0.000   0.000
 -0.000  -0.000  -0.000  -0.000   0.000   0.000   0.000  -0.000
 -0.000   0.000   0.000  -0.007   0.000  -0.000   0.019  -0.000
 -0.000   0.000   0.000   0.000  -0.007  -0.000  -0.000   0.019
  0.000  -0.000   0.000  -0.000   0.000  -0.000   0.000  -0.000
 -0.000   0.000  -0.007   0.000   0.000   0.019  -0.000  -0.000
  0.000  -0.000   0.000   0.000  -0.000  -0.000  -0.000   0.000
 total augmentation occupancy for first ion, spin component:           1
  1.559   0.017  -0.000  -0.000  -0.000  -0.000  -0.000  -0.000   0.000   0.000  -0.000  -0.000   0.000   0.000  -0.000   0.000
  0.017   0.000  -0.000   0.000  -0.000   0.000   0.000   0.000   0.000  -0.000   0.000  -0.000  -0.000   0.000   0.000   0.000
 -0.000  -0.000   1.185  -0.000  -0.000   0.026   0.000  -0.000   0.000  -0.000   0.000   0.135   0.000   0.000  -0.000   0.000
 -0.000  -0.000  -0.000   1.185   0.000  -0.000   0.026   0.000   0.135   0.000   0.000  -0.000  -0.000   0.000   0.000  -0.000
 -0.000  -0.000  -0.000   0.000   1.185  -0.000   0.000   0.026   0.000   0.135  -0.000  -0.000  -0.000   0.000   0.000  -0.000
 -0.000   0.000   0.026  -0.000  -0.000   0.001   0.000  -0.000   0.000  -0.000   0.000   0.003   0.000   0.000  -0.000   0.000
 -0.000   0.000  -0.000   0.026   0.000  -0.000   0.001   0.000   0.003   0.000   0.000  -0.000  -0.000   0.000   0.000   0.000
 -0.000   0.000  -0.000   0.000   0.026  -0.000   0.000   0.001   0.000   0.003  -0.000  -0.000  -0.000   0.000   0.000  -0.000
  0.000   0.000   0.000   0.135   0.000   0.000   0.003   0.000   0.026   0.000   0.000  -0.000  -0.000   0.000   0.000   0.000
 -0.000  -0.000  -0.000   0.000   0.135  -0.000   0.000   0.003   0.000   0.026  -0.000  -0.000  -0.000   0.000   0.000  -0.000
 -0.000   0.000   0.000   0.000  -0.000   0.000   0.000  -0.000   0.000  -0.000   0.008   0.000   0.000   0.000  -0.000   0.000
 -0.000  -0.000   0.135  -0.000  -0.000   0.003  -0.000  -0.000  -0.000  -0.000   0.000   0.026   0.000  -0.000  -0.000   0.000
  0.000  -0.000   0.000  -0.000  -0.000   0.000  -0.000  -0.000  -0.000  -0.000   0.000   0.000   0.008   0.000  -0.000  -0.000
  0.000   0.000   0.000   0.000   0.000   0.000   0.000   0.000   0.000   0.000   0.000  -0.000   0.000   0.000   0.000   0.000
  0.000   0.000  -0.000   0.000   0.000  -0.000   0.000   0.000   0.000   0.000  -0.000  -0.000  -0.000   0.000   0.000  -0.000
  0.000   0.000   0.000   0.000  -0.000   0.000   0.000  -0.000   0.000  -0.000   0.000   0.000  -0.000   0.000  -0.000   0.000
 -0.000  -0.000   0.000  -0.000  -0.000   0.000  -0.000  -0.000  -0.000  -0.000   0.000   0.000   0.000  -0.000  -0.000   0.000
  0.000  -0.000   0.000  -0.000  -0.000   0.000   0.000  -0.000   0.000  -0.000   0.000   0.000   0.000   0.000  -0.000   0.000


------------------------ aborting loop because EDIFF is reached ----------------------------------------


    CHARGE:  cpu time      0.0418: real time      0.3240
    FORLOC:  cpu time      0.0006: real time      0.0002
    FORNL :  cpu time      0.0223: real time      0.0172
    STRESS:  cpu time      0.1562: real time      0.0939
    FORCOR:  cpu time      0.0222: real time      0.0099
    FORHAR:  cpu time      0.0038: real time      0.0031
    MIXING:  cpu time      0.0011: real time      0.0008
    OFIELD:  cpu time      0.0000: real time      0.0000

  FORCE on cell =-STRESS in cart. coord.  units (eV):
  Direction    XX          YY          ZZ          XY          YZ          ZX
  --------------------------------------------------------------------------------------
  Alpha Z     6.08881     6.08881     6.08881
  Ewald     -76.18788   -76.18788   -76.18788    -0.00000     0.00000     0.00000
  Hartree     4.99524     4.99524     4.99524     0.00000     0.00000     0.00000
  E(xc)     -25.16963   -25.16963   -25.16963    -0.00000    -0.00000    -0.00000
  Local     -26.49788   -26.49788   -26.49788     0.00001     0.00001     0.00001
  n-local    73.50912    68.21811    72.73643    -1.00915     0.65858     2.21639
  augment   -11.03934   -11.03934   -11.03934    -0.00001    -0.00001    -0.00001
  Kinetic    56.75469    55.05447    58.74598    -0.92796     0.92483     3.51737
  Fock        0.00000     0.00000     0.00000     0.00000     0.00000     0.00000
  -------------------------------------------------------------------------------------
  Total       0.52891     0.52891     0.52891     0.00000     0.00000     0.00000
  in kB      21.17174    21.17174    21.17174     0.00000     0.00000     0.00000
  external pressure =       21.17 kB  Pullay stress =        0.00 kB


 VOLUME and BASIS-vectors are now :
 -----------------------------------------------------------------------------
  energy-cutoff  :      400.00
  volume of cell :       40.03
      direct lattice vectors                 reciprocal lattice vectors
     2.715000000  2.715000000  0.000000000     0.184162063  0.184162063 -0.184162063
     0.000000000  2.715000000  2.715000000    -0.184162063  0.184162063  0.184162063
     2.715000000  0.000000000  2.715000000     0.184162063 -0.184162063  0.184162063

  length of vectors
     3.839589822  3.839589822  3.839589822     0.318978049  0.318978049  0.318978049


 FORCES acting on ions
    electron-ion (+dipol)            ewald-force                    non-local-force                 convergence-correction
 -----------------------------------------------------------------------------------------------
   0.784E-06 0.868E-06 0.784E-06   0.148E-15 0.231E-14 -.668E-15   0.873E-16 0.202E-16 0.318E-16   -.138E-10 -.138E-10 -.138E-10
   -.784E-06 -.868E-06 -.784E-06   -.100E-15 -.282E-14 0.881E-15   -.761E-16 -.250E-16 -.206E-16   0.138E-10 0.138E-10 0.138E-10
 -----------------------------------------------------------------------------------------------
   0.359E-13 0.232E-13 0.384E-13   0.481E-16 -.506E-15 0.213E-15   0.112E-16 -.479E-17 0.112E-16   -.333E-14 -.641E-15 0.108E-14


 POSITION                                       TOTAL-FORCE (eV/Angst)
 -----------------------------------------------------------------------------------
      0.00000      0.00000      0.00000        -0.000000     -0.000000     -0.000000
      1.35750      1.35750      1.35750         0.000000      0.000000      0.000000
 -----------------------------------------------------------------------------------
    total drift:                                0.000000      0.000000      0.000000


--------------------------------------------------------------------------------------------------------



  FREE ENERGIE OF THE ION-ELECTRON SYSTEM (eV)
  ---------------------------------------------------
  free  energy   TOTEN  =       -10.81675392 eV

  energy  without entropy=      -10.81675392  energy(sigma->0) =      -10.81675392



--------------------------------------------------------------------------------------------------------


    POTLOK:  cpu time      0.0271: real time      0.0125


--------------------------------------------------------------------------------------------------------


 -----------------------------------------------------------------------------
|                                                                             |
|           W    W    AA    RRRRR   N    N  II  N    N   GGGG   !!!           |
|           W    W   A  A   R    R  NN   N  II  NN   N  G    G  !!!           |
|           W    W  A    A  R    R  N N  N  II  N N  N  G       !!!           |
|           W WW W  AAAAAA  RRRRR   N  N N  II  N  N N  G  GGG   !            |
|           WW  WW  A    A  R   R   N   NN  II  N   NN  G    G                |
|           W    W  A    A  R    R  N    N  II  N    N   GGGG   !!!           |
|                                                                             |
|     Changing the smearing to ISMEAR=1 (the default) for those parts of      |
|     this job that use k-points specified in line-mode.                      |
|                                                                             |
 -----------------------------------------------------------------------------

 writing wavefunctions
     LOOP+:  cpu time     47.1885: real time     28.2130
    4ORBIT:  cpu time      0.0000: real time      0.0002
 BZINTS: Fermi energy:    5.504484;    8.000000 electrons
         Band energy: 0.328338E+01;  BLOECHL correction:    0.000000

 total amount of memory used by VASP MPI-rank0    40743. kBytes
=======================================================================

   base                                    :      30000. kBytes
   nonl-proj                               :       1740. kBytes
   fftplans                                :       2284. kBytes
   grid                                    :       3500. kBytes
   one-center                              :         31. kBytes
   wavefun                                 :       3188. kBytes

  
  
 General timing and accounting informations for this job:
 ========================================================
  
                  Total CPU time used (sec):       47.407
                            User time (sec):       17.156
                          System time (sec):       30.251
                         Elapsed time (sec):       28.427
  
                   Maximum memory used (kb):    82673664.
                   Average memory used (kb):          N/A
  
                          Minor page faults:         9839
                          Major page faults:          985
                 Voluntary context switches:           76
