<?xml version="1.0" encoding="ISO-8859-1"?>
<modeling>
 <generator>
  <i name="program" type="string">vasp </i>
  <i name="version" type="string">6.5.0  </i>
  <i name="subversion" type="string">16Dec24 (build Feb 18 2025 08:57:40) complex                          parallel </i>
  <i name="platform" type="string">LinuxGNU </i>
  <i name="date" type="string">2025 05 31 </i>
  <i name="time" type="string">16:49:22 </i>
 </generator>
 <incar>
  <i type="string" name="SYSTEM">cd Si DFT ground state</i>
  <i name="EDIFF">      0.00000001</i>
  <i name="ENCUT">    400.00000000</i>
  <i type="int" name="ISMEAR">    -5</i>
 </incar>
 <primitive_cell>
  <structure name="primitive_cell" >
   <crystal>
    <varray name="basis" >
     <v>       2.71500000       2.71500000       0.00000000 </v>
     <v>       0.00000000       2.71500000       2.71500000 </v>
     <v>       2.71500000       0.00000000       2.71500000 </v>
    </varray>
    <i name="volume">     40.02575175 </i>
    <varray name="rec_basis" >
     <v>       0.18416206       0.18416206      -0.18416206 </v>
     <v>      -0.18416206       0.18416206       0.18416206 </v>
     <v>       0.18416206      -0.18416206       0.18416206 </v>
    </varray>
   </crystal>
   <varray name="positions" >
    <v>       0.00000000       0.00000000       0.00000000 </v>
    <v>       0.25000000       0.25000000       0.25000000 </v>
   </varray>
  </structure>
  <varray name="primitive_index" >
   <v type="int" >        1 </v>
   <v type="int" >        2 </v>
  </varray>
 </primitive_cell>
 <kpoints>
  <generation param="Gamma">
   <v type="int" name="divisions">       6        6        6 </v>
   <v name="usershift">      0.00000000       0.00000000       0.00000000 </v>
   <v name="genvec1">      0.16666667       0.00000000       0.00000000 </v>
   <v name="genvec2">      0.00000000       0.16666667      -0.00000000 </v>
   <v name="genvec3">     -0.00000000      -0.00000000       0.16666667 </v>
   <v name="shift">      0.00000000       0.00000000       0.00000000 </v>
  </generation>
  <varray name="kpointlist" >
   <v>       0.00000000       0.00000000       0.00000000 </v>
   <v>       0.16666667       0.00000000       0.00000000 </v>
   <v>       0.33333333       0.00000000       0.00000000 </v>
   <v>       0.50000000       0.00000000       0.00000000 </v>
   <v>       0.16666667       0.16666667       0.00000000 </v>
   <v>       0.33333333       0.16666667       0.00000000 </v>
   <v>       0.50000000       0.16666667       0.00000000 </v>
   <v>      -0.33333333       0.16666667       0.00000000 </v>
   <v>      -0.16666667       0.16666667       0.00000000 </v>
   <v>       0.33333333       0.33333333       0.00000000 </v>
   <v>       0.50000000       0.33333333       0.00000000 </v>
   <v>      -0.33333333       0.33333333       0.00000000 </v>
   <v>       0.50000000       0.50000000       0.00000000 </v>
   <v>       0.50000000       0.33333333       0.16666667 </v>
   <v>      -0.33333333       0.33333333       0.16666667 </v>
   <v>      -0.33333333       0.50000000       0.16666667 </v>
  </varray>
  <varray name="weights" >
   <v>       0.00462963 </v>
   <v>       0.03703704 </v>
   <v>       0.03703704 </v>
   <v>       0.01851852 </v>
   <v>       0.02777778 </v>
   <v>       0.11111111 </v>
   <v>       0.11111111 </v>
   <v>       0.11111111 </v>
   <v>       0.05555556 </v>
   <v>       0.02777778 </v>
   <v>       0.11111111 </v>
   <v>       0.05555556 </v>
   <v>       0.01388889 </v>
   <v>       0.11111111 </v>
   <v>       0.11111111 </v>
   <v>       0.05555556 </v>
  </varray>
  <varray name="tetrahedronlist"  type="int" >
   <v type="int" >       48        2        3        6        9 </v>
   <v type="int" >       48        6        8        9       14 </v>
   <v type="int" >       24        8        8        9       14 </v>
   <v type="int" >       48        3        6        8        9 </v>
   <v type="int" >       48        8       12       14       15 </v>
   <v type="int" >       48        7        8       12       15 </v>
   <v type="int" >       24        8        8       12       14 </v>
   <v type="int" >       48        7       11       14       15 </v>
   <v type="int" >       48        6        7       11       14 </v>
   <v type="int" >       48        7       11       12       15 </v>
   <v type="int" >       24        6        6       10       14 </v>
   <v type="int" >       24        5        6        6       10 </v>
   <v type="int" >       48        6       10       11       14 </v>
   <v type="int" >       24        5        6        6        9 </v>
   <v type="int" >       48        2        5        6        9 </v>
   <v type="int" >       48        6        7        8       14 </v>
   <v type="int" >       48        3        6        7        8 </v>
   <v type="int" >       48       11       14       15       16 </v>
   <v type="int" >       24       14       15       15       16 </v>
   <v type="int" >       24       12       14       15       15 </v>
   <v type="int" >       48        7        8       14       15 </v>
   <v type="int" >       24       15       15       16       16 </v>
   <v type="int" >       24       12       15       15       16 </v>
   <v type="int" >       48       11       12       15       16 </v>
   <v type="int" >       24       11       11       14       16 </v>
   <v type="int" >       24       10       11       11       14 </v>
   <v type="int" >       24        6        6        9       14 </v>
   <v type="int" >       24       11       11       12       16 </v>
   <v type="int" >       48        7        7        8       15 </v>
   <v type="int" >       24        2        2        5        9 </v>
   <v type="int" >       48        3        4        7        8 </v>
   <v type="int" >       48        4        7        7        8 </v>
   <v type="int" >       48       11       11       13       16 </v>
   <v type="int" >       24       10       11       11       13 </v>
   <v type="int" >       24        1        2        2        5 </v>
  </varray>
  <i name="volumeweight">      0.00077160 </i>
 </kpoints>
 <parameters>
  <separator name="general" >
   <i type="string" name="SYSTEM">cd Si DFT ground state</i>
   <i type="logical" name="LCOMPAT"> F  </i>
  </separator>
  <separator name="electronic" >
   <i type="string" name="PREC">normal</i>
   <i name="ENMAX">    400.00000000</i>
   <i name="ENAUG">    412.95200000</i>
   <i name="EDIFF">      0.00000001</i>
   <i type="int" name="IALGO">    38</i>
   <i type="int" name="IWAVPR">    10</i>
   <i type="int" name="NBANDS">     8</i>
   <i type="int" name="NBANDSLOW">    -1</i>
   <i type="int" name="NBANDSHIGH">    -1</i>
   <i name="NELECT">      8.00000000</i>
   <i type="int" name="TURBO">     0</i>
   <i type="int" name="IRESTART">     0</i>
   <i type="int" name="NREBOOT">     0</i>
   <i type="int" name="NMIN">     0</i>
   <i name="EREF">      0.00000000</i>
   <separator name="electronic smearing" >
    <i type="int" name="ISMEAR">    -5</i>
    <i name="SIGMA">      0.20000000</i>
    <i name="KSPACING">      0.50000000</i>
    <i type="logical" name="KGAMMA"> T  </i>
    <i type="logical" name="KBLOWUP"> T  </i>
   </separator>
   <separator name="electronic projectors" >
    <i type="logical" name="LREAL"> F  </i>
    <v name="ROPT">      0.00000000</v>
    <i type="int" name="LMAXPAW">  -100</i>
    <i type="int" name="LMAXMIX">     2</i>
    <i type="logical" name="NLSPLINE"> F  </i>
   </separator>
   <separator name="electronic startup" >
    <i type="int" name="ISTART">     0</i>
    <i type="int" name="ICHARG">     2</i>
    <i type="int" name="INIWAV">     1</i>
   </separator>
   <separator name="electronic spin" >
    <i type="int" name="ISPIN">     1</i>
    <i type="logical" name="LNONCOLLINEAR"> F  </i>
    <v name="MAGMOM">      1.00000000      1.00000000</v>
    <i name="NUPDOWN">     -1.00000000</i>
    <i type="logical" name="LSORBIT"> F  </i>
    <v name="SAXIS">      0.00000000      0.00000000      1.00000000</v>
    <i type="logical" name="LSPIRAL"> F  </i>
    <v name="QSPIRAL">      0.00000000      0.00000000      0.00000000</v>
    <i type="logical" name="LZEROZ"> F  </i>
   </separator>
   <separator name="electronic exchange-correlation" >
    <i type="logical" name="LASPH"> F  </i>
   </separator>
   <separator name="electronic convergence" >
    <i type="int" name="NELM">    60</i>
    <i type="int" name="NELMDL">    -5</i>
    <i type="int" name="NELMIN">     2</i>
    <i name="ENINI">    400.00000000</i>
    <separator name="electronic convergence detail" >
     <i type="logical" name="LDIAG"> T  </i>
     <i type="logical" name="LSUBROT"> F  </i>
     <i name="WEIMIN">      0.00000000</i>
     <i name="EBREAK">      0.00000000</i>
     <i name="DEPER">      0.30000000</i>
     <i type="int" name="NRMM">     4</i>
     <i name="TIME">      0.40000000</i>
    </separator>
   </separator>
   <separator name="electronic mixer" >
    <i name="AMIX">      0.40000000</i>
    <i name="BMIX">      1.00000000</i>
    <i name="AMIN">      0.10000000</i>
    <i name="AMIX_MAG">      1.60000000</i>
    <i name="BMIX_MAG">      1.00000000</i>
    <separator name="electronic mixer details" >
     <i type="int" name="IMIX">     4</i>
     <i type="logical" name="MIXFIRST"> F  </i>
     <i type="int" name="MAXMIX">   -45</i>
     <i name="WC">    100.00000000</i>
     <i type="int" name="INIMIX">     1</i>
     <i type="int" name="MIXPRE">     1</i>
     <i type="int" name="MREMOVE">     5</i>
    </separator>
   </separator>
   <separator name="electronic dipolcorrection" >
    <i type="logical" name="LDIPOL"> F  </i>
    <i type="logical" name="LMONO"> F  </i>
    <i type="int" name="IDIPOL">     0</i>
    <i name="EPSILON">      1.00000000</i>
    <v name="DIPOL">   -100.00000000   -100.00000000   -100.00000000</v>
    <i name="EFIELD">      0.00000000</i>
    <i type="logical" name="LVACPOTAV"> F  </i>
   </separator>
  </separator>
  <separator name="grids" >
   <i type="int" name="NGX">    20</i>
   <i type="int" name="NGY">    20</i>
   <i type="int" name="NGZ">    20</i>
   <i type="int" name="NGXF">    40</i>
   <i type="int" name="NGYF">    40</i>
   <i type="int" name="NGZF">    40</i>
   <i type="logical" name="ADDGRID"> F  </i>
  </separator>
  <separator name="ionic" >
   <i type="int" name="NSW">     0</i>
   <i type="int" name="IBRION">    -1</i>
   <i type="int" name="MDALGO">     0</i>
   <i type="int" name="ISIF">     2</i>
   <i name="PSTRESS">      0.00000000</i>
   <i name="EDIFFG">      0.00000010</i>
   <i type="int" name="NFREE">     0</i>
   <i name="POTIM">      0.50000000</i>
   <i name="SMASS">     -3.00000000</i>
   <i name="SCALEE">      1.00000000</i>
  </separator>
  <separator name="ionic md" >
   <i name="TEBEG">      0.00010000</i>
   <i name="TEEND">      0.00010000</i>
   <i type="int" name="NBLOCK">     1</i>
   <i type="int" name="KBLOCK">     1</i>
   <i type="int" name="NPACO">   256</i>
   <i name="APACO">     10.00000000</i>
  </separator>
  <separator name="symmetry" >
   <i type="int" name="ISYM">     2</i>
   <i name="SYMPREC">      0.00001000</i>
  </separator>
  <separator name="dos" >
   <i type="int" name="LORBIT">     0</i>
   <v name="RWIGS">     -1.00000000</v>
   <i type="int" name="NEDOS">   301</i>
   <i name="EMIN">     10.00000000</i>
   <i name="EMAX">    -10.00000000</i>
   <i name="EFERMI">      0.00000000</i>
  </separator>
  <separator name="writing" >
   <i type="int" name="NWRITE">     2</i>
   <i type="logical" name="LWAVE"> T  </i>
   <i type="logical" name="LDOWNSAMPLE"> F  </i>
   <i type="logical" name="LCHARG"> T  </i>
   <i type="logical" name="LPARD"> F  </i>
   <i type="logical" name="LVTOT"> F  </i>
   <i type="logical" name="LVHAR"> F  </i>
   <i type="logical" name="LELF"> F  </i>
   <i type="logical" name="LOPTICS"> F  </i>
   <v name="STM">      0.00000000      0.00000000      0.00000000      0.00000000      0.00000000      0.00000000      0.00000000</v>
  </separator>
  <separator name="performance" >
   <i type="int" name="NPAR">     1</i>
   <i type="int" name="NSIM">     4</i>
   <i type="int" name="NBLK">    -1</i>
   <i type="logical" name="LPLANE"> T  </i>
   <i type="logical" name="LSCALAPACK"> T  </i>
   <i type="logical" name="LSCAAWARE"> F  </i>
   <i type="logical" name="LSCALU"> F  </i>
   <i type="logical" name="LASYNC"> F  </i>
   <i type="logical" name="LORBITALREAL"> F  </i>
  </separator>
  <separator name="miscellaneous" >
   <i type="int" name="IDIOT">     3</i>
   <i type="int" name="PHON_NSTRUCT">    -1</i>
   <i type="logical" name="LMUSIC"> F  </i>
   <v name="POMASS">     28.08500000</v>
   <v name="DARWINR">      0.00000000</v>
   <v name="DARWINV">      1.00000000</v>
   <i type="logical" name="LCORR"> T  </i>
  </separator>
  <i type="logical" name="GGA_COMPAT"> T  </i>
  <i type="logical" name="LBERRY"> F  </i>
  <i type="int" name="ICORELEVEL">     0</i>
  <i type="logical" name="LDAU"> F  </i>
  <i type="int" name="I_CONSTRAINED_M">     0</i>
  <separator name="electronic exchange-correlation" >
   <i type="string" name="GGA    ">PE</i>
   <i type="string" name="XC_C">1</i>
   <i type="int" name="VOSKOWN">     0</i>
   <i type="logical" name="LHFCALC"> F  </i>
   <i type="string" name="PRECFOCK"></i>
   <i type="logical" name="LSYMGRAD"> F  </i>
   <i type="logical" name="LHFONE"> F  </i>
   <i type="logical" name="LRHFCALC"> F  </i>
   <i type="logical" name="LTHOMAS"> F  </i>
   <i type="logical" name="LMODELHF"> F  </i>
   <i type="logical" name="LFOCKACE"> F  </i>
   <i name="ENCUT4O">     -1.00000000</i>
   <i type="int" name="EXXOEP">     0</i>
   <i type="int" name="FOURORBIT">     0</i>
   <i name="AEXX">      0.00000000</i>
   <i name="HFALPHA">      0.00000000</i>
   <i name="MCALPHA">      0.00000000</i>
   <i name="ALDAX">      1.00000000</i>
   <i name="AGGAX">      1.00000000</i>
   <i name="AMGGAX">      1.00000000</i>
   <i name="ALDAC">      1.00000000</i>
   <i name="AGGAC">      1.00000000</i>
   <i name="AMGGAC">      1.00000000</i>
   <i type="int" name="NKREDX">     1</i>
   <i type="int" name="NKREDY">     1</i>
   <i type="int" name="NKREDZ">     1</i>
   <i type="logical" name="SHIFTRED"> F  </i>
   <i type="logical" name="ODDONLY"> F  </i>
   <i type="logical" name="EVENONLY"> F  </i>
   <i type="int" name="LMAXFOCK">     0</i>
   <i type="int" name="NMAXFOCKAE">     0</i>
   <i type="logical" name="LFOCKAEDFT"> F  </i>
   <i name="HFSCREEN">      0.00000000</i>
   <i name="HFSCREENC">      0.00000000</i>
   <i type="int" name="NBANDSGWLOW">     0</i>
  </separator>
  <separator name="vdW DFT" >
   <i type="logical" name="LUSE_VDW"> F  </i>
   <i type="int" name="IVDW_NL">    -1</i>
   <i type="logical" name="LSPIN_VDW"> F  </i>
   <i name="ZAB_VDW">     -0.84910000</i>
   <i name="GAMMA_VDW">      1.39626340</i>
   <i name="ALPHA_VDW">      0.00000000</i>
   <i name="PARAM1">      0.12340000</i>
   <i name="PARAM2">      1.00000000</i>
   <i name="BPARAM">      6.30000000</i>
   <i name="CPARAM">      0.00930000</i>
  </separator>
  <separator name="model GW" >
   <i type="int" name="MODEL_GW">     0</i>
   <i name="MODEL_EPS0">     12.00772552</i>
   <i name="MODEL_ALPHA">      1.00000000</i>
  </separator>
  <separator name="linear response parameters" >
   <i type="logical" name="LEPSILON"> F  </i>
   <i type="logical" name="LRPA"> F  </i>
   <i type="logical" name="LNABLA"> F  </i>
   <i type="logical" name="LVEL"> F  </i>
   <i name="CSHIFT">      0.10000000</i>
   <i name="OMEGAMAX">     -1.00000000</i>
   <i name="DEG_THRESHOLD">      0.00200000</i>
   <i name="RTIME">     -0.10000000</i>
   <i name="WPLASMAI">      0.00000000</i>
   <v name="DFIELD">      0.00000000      0.00000000      0.00000000</v>
   <v name="WPLASMA">      0.00000000      0.00000000      0.00000000      0.00000000      0.00000000      0.00000000      0.00000000      0.00000000      0.00000000</v>
  </separator>
  <separator name="orbital magnetization" >
   <i type="logical" name="NUCIND"> F  </i>
   <v name="MAGPOS">      0.00000000      0.00000000      0.00000000</v>
   <i type="logical" name="LNICSALL"> T  </i>
   <i type="logical" name="ORBITALMAG"> F  </i>
   <i type="logical" name="LMAGBLOCH"> F  </i>
   <i type="logical" name="LCHIMAG"> F  </i>
   <i type="logical" name="LGAUGE"> T  </i>
   <i type="int" name="MAGATOM">     0</i>
   <v name="MAGDIPOL">      0.00000000      0.00000000      0.00000000</v>
   <v name="AVECCONST">      0.00000000      0.00000000      0.00000000</v>
  </separator>
  <separator name="response functions" >
   <i type="logical" name="LALL_IN_ONE"> F  </i>
   <i type="int" name="IALL_IN_ONE">    -1</i>
   <i type="int" name="NBANDS_WAVE">    -1</i>
   <i type="logical" name="LFINITE_TEMPERATURE"> F  </i>
   <i type="logical" name="LADDER"> F  </i>
   <i type="logical" name="LRPAFORCE"> F  </i>
   <i type="logical" name="LFXC"> F  </i>
   <i type="logical" name="LHARTREE"> T  </i>
   <i type="int" name="IBSE">     2</i>
   <v type="int" name="KPOINT">    -1     0     0     0</v>
   <i type="logical" name="LTCTC"> F  </i>
   <i type="logical" name="LTCTE"> F  </i>
   <i type="logical" name="LTETE"> F  </i>
   <i type="logical" name="LTRIPLET"> F  </i>
   <i type="logical" name="LFXCEPS"> F  </i>
   <i type="logical" name="LFXHEG"> F  </i>
   <i type="int" name="NATURALO">     2</i>
   <i type="logical" name="LHOLEGF"> F  </i>
   <i type="logical" name="L2ORDER"> F  </i>
   <i type="logical" name="LDMP1"> F  </i>
   <i type="logical" name="LMP2LT"> F  </i>
   <i type="logical" name="LSMP2LT"> F  </i>
   <i type="logical" name="LGWLF"> F  </i>
   <i name="ENCUTGW">     -1.60000002</i>
   <i name="ENCUTGWSOFT">     -1.60000002</i>
   <i name="ENCUTLF">     -1.00000000</i>
   <i type="logical" name="ESF_SPLINES"> F  </i>
   <i name="ESF_CONV">      0.01000000</i>
   <i type="int" name="ESF_NINTER">    15</i>
   <i type="int" name="LMAXMP2">    -1</i>
   <i name="SCISSOR">      0.00000000</i>
   <i type="int" name="NOMEGA">     0</i>
   <i type="int" name="NOMEGAR">     0</i>
   <i type="int" name="NBANDSGW">    -1</i>
   <i type="int" name="NBANDSO">    -1</i>
   <i type="int" name="NBANDSV">    -1</i>
   <i type="int" name="NELMGW">     1</i>
   <i type="int" name="NELMHF">     1</i>
   <i type="int" name="DIM">     3</i>
   <i type="int" name="IESPILON">     4</i>
   <i type="int" name="ANTIRES">     0</i>
   <i name="OMEGAMAX">    -30.00000000</i>
   <i name="OMEGAMIN">    -30.00000000</i>
   <i name="OMEGATL">   -200.00000000</i>
   <i type="int" name="OMEGAGRID">     0</i>
   <i name="CSHIFT">     -0.10000000</i>
   <i type="logical" name="LSELFENERGY"> F  </i>
   <i type="logical" name="LSPECTRAL"> F  </i>
   <i type="logical" name="LSPECTRALGW"> F  </i>
   <i type="logical" name="LSINGLES"> F  </i>
   <i type="logical" name="LFERMIGW"> F  </i>
   <i type="logical" name="ODDONLYGW"> F  </i>
   <i type="logical" name="EVENONLYGW"> F  </i>
   <i type="int" name="NKREDLFX">     1</i>
   <i type="int" name="NKREDLFY">     1</i>
   <i type="int" name="NKREDLFZ">     1</i>
   <i type="int" name="MAXMEM">  2800</i>
   <i type="int" name="TELESCOPE">     0</i>
   <i type="int" name="NTAUPAR">    -1</i>
   <i type="int" name="NOMEGAPAR">    -1</i>
   <i name="DAMP_NEWTON">      0.80000001</i>
   <i name="LAMBDA">      1.00000000</i>
  </separator>
  <separator name="External order field" >
   <i name="OFIELD_KAPPA">      0.00000000</i>
   <v name="OFIELD_K">      0.00000000      0.00000000      0.00000000</v>
   <i name="OFIELD_Q6_NEAR">      0.00000000</i>
   <i name="OFIELD_Q6_FAR">      0.00000000</i>
   <i name="OFIELD_A">      0.00000000</i>
  </separator>
  <separator name="optional k-points parameters" >
   <i type="int" name="KPOINTS_OPT_MODE">     1</i>
   <i type="logical" name="LKPOINTS_OPT"> T  </i>
  </separator>
 </parameters>
 <atominfo>
  <atoms>       2 </atoms>
  <types>       1 </types>
  <array name="atoms" >
   <dimension dim="1">ion</dimension>
   <field type="string">element</field>
   <field type="int">atomtype</field>
   <set>
    <rc><c>Si</c><c>   1</c></rc>
    <rc><c>Si</c><c>   1</c></rc>
   </set>
  </array>
  <array name="atomtypes" >
   <dimension dim="1">type</dimension>
   <field type="int">atomspertype</field>
   <field type="string">element</field>
   <field>mass</field>
   <field>valence</field>
   <field type="string">pseudopotential</field>
   <set>
    <rc><c>   2</c><c>Si</c><c>     28.08500000</c><c>      4.00000000</c><c>  PAW_PBE Si_GW 04May2012               </c></rc>
   </set>
  </array>
 </atominfo>
 <structure name="initialpos" >
  <crystal>
   <varray name="basis" >
    <v>       2.71500000       2.71500000       0.00000000 </v>
    <v>       0.00000000       2.71500000       2.71500000 </v>
    <v>       2.71500000       0.00000000       2.71500000 </v>
   </varray>
   <i name="volume">     40.02575175 </i>
   <varray name="rec_basis" >
    <v>       0.18416206       0.18416206      -0.18416206 </v>
    <v>      -0.18416206       0.18416206       0.18416206 </v>
    <v>       0.18416206      -0.18416206       0.18416206 </v>
   </varray>
  </crystal>
  <varray name="positions" >
   <v>       0.00000000       0.00000000       0.00000000 </v>
   <v>       0.25000000       0.25000000       0.25000000 </v>
  </varray>
 </structure>
 <calculation>
  <scstep>
   <time name="dav">    0.79    0.46</time>
   <time name="total">    0.82    0.47</time>
   <energy>
    <i name="alphaZ">      6.08881246 </i>
    <i name="ewald">   -228.56352493 </i>
    <i name="hartreedc">    -11.07014067 </i>
    <i name="XCdc">    -18.88189550 </i>
    <i name="pawpsdc">    176.77094182 </i>
    <i name="pawaedc">   -141.06103538 </i>
    <i name="eentropy">      0.00000000 </i>
    <i name="bandstr">     15.04962468 </i>
    <i name="atom">    206.13149246 </i>
    <i name="e_fr_energy">      4.46427494 </i>
    <i name="e_wo_entrp">      4.46427494 </i>
    <i name="e_0_energy">      4.46427494 </i>
   </energy>
  </scstep>
  <scstep>
   <time name="dav">    1.14    0.66</time>
   <time name="total">    1.14    0.66</time>
   <energy>
    <i name="e_fr_energy">    -10.80701721 </i>
    <i name="e_wo_entrp">    -10.80701721 </i>
    <i name="e_0_energy">    -10.80701721 </i>
   </energy>
  </scstep>
  <scstep>
   <time name="dav">    0.78    0.45</time>
   <time name="total">    0.78    0.45</time>
   <energy>
    <i name="e_fr_energy">    -10.99914354 </i>
    <i name="e_wo_entrp">    -10.99914354 </i>
    <i name="e_0_energy">    -10.99914354 </i>
   </energy>
  </scstep>
  <scstep>
   <time name="dav">    1.31    0.74</time>
   <time name="total">    1.31    0.74</time>
   <energy>
    <i name="e_fr_energy">    -11.00471548 </i>
    <i name="e_wo_entrp">    -11.00471548 </i>
    <i name="e_0_energy">    -11.00471548 </i>
   </energy>
  </scstep>
  <scstep>
   <time name="dav">    0.97    0.56</time>
   <time name="total">    1.01    0.58</time>
   <energy>
    <i name="e_fr_energy">    -11.00472199 </i>
    <i name="e_wo_entrp">    -11.00472199 </i>
    <i name="e_0_energy">    -11.00472199 </i>
   </energy>
  </scstep>
  <scstep>
   <time name="dav">    0.98    0.61</time>
   <time name="total">    1.05    0.65</time>
   <energy>
    <i name="e_fr_energy">    -10.87576127 </i>
    <i name="e_wo_entrp">    -10.87576127 </i>
    <i name="e_0_energy">    -10.87576127 </i>
   </energy>
  </scstep>
  <scstep>
   <time name="dav">    0.98    0.59</time>
   <time name="total">    1.05    0.64</time>
   <energy>
    <i name="e_fr_energy">    -10.81528541 </i>
    <i name="e_wo_entrp">    -10.81528541 </i>
    <i name="e_0_energy">    -10.81528541 </i>
   </energy>
  </scstep>
  <scstep>
   <time name="dav">    0.82    0.51</time>
   <time name="total">    0.89    0.55</time>
   <energy>
    <i name="e_fr_energy">    -10.81661473 </i>
    <i name="e_wo_entrp">    -10.81661473 </i>
    <i name="e_0_energy">    -10.81661473 </i>
   </energy>
  </scstep>
  <scstep>
   <time name="dav">    1.12    0.64</time>
   <time name="total">    1.19    0.68</time>
   <energy>
    <i name="e_fr_energy">    -10.81673201 </i>
    <i name="e_wo_entrp">    -10.81673201 </i>
    <i name="e_0_energy">    -10.81673201 </i>
   </energy>
  </scstep>
  <scstep>
   <time name="dav">    0.85    0.50</time>
   <time name="total">    0.92    0.54</time>
   <energy>
    <i name="e_fr_energy">    -10.81675421 </i>
    <i name="e_wo_entrp">    -10.81675421 </i>
    <i name="e_0_energy">    -10.81675421 </i>
   </energy>
  </scstep>
  <scstep>
   <time name="dav">    1.06    0.62</time>
   <time name="total">    1.13    0.66</time>
   <energy>
    <i name="e_fr_energy">    -10.81675402 </i>
    <i name="e_wo_entrp">    -10.81675402 </i>
    <i name="e_0_energy">    -10.81675402 </i>
   </energy>
  </scstep>
  <scstep>
   <time name="dav">    0.92    0.53</time>
   <time name="total">    0.99    0.57</time>
   <energy>
    <i name="e_fr_energy">    -10.81675393 </i>
    <i name="e_wo_entrp">    -10.81675393 </i>
    <i name="e_0_energy">    -10.81675393 </i>
   </energy>
  </scstep>
  <scstep>
   <time name="dav">    0.96    0.56</time>
   <time name="total">    1.03    0.60</time>
   <energy>
    <i name="e_fr_energy">    -10.81675390 </i>
    <i name="e_wo_entrp">    -10.81675390 </i>
    <i name="e_0_energy">    -10.81675390 </i>
   </energy>
  </scstep>
  <scstep>
   <time name="dav">    0.71    0.44</time>
   <time name="total">    0.78    0.47</time>
   <energy>
    <i name="e_fr_energy">    -10.81675392 </i>
    <i name="e_wo_entrp">    -10.81675392 </i>
    <i name="e_0_energy">    -10.81675392 </i>
   </energy>
  </scstep>
  <scstep>
   <time name="dav">    0.74    0.42</time>
   <time name="total">    0.76    0.43</time>
   <energy>
    <i name="alphaZ">      6.08881246 </i>
    <i name="ewald">   -228.56352493 </i>
    <i name="hartreedc">    -14.98571770 </i>
    <i name="XCdc">    -18.20719087 </i>
    <i name="pawpsdc">    258.38700303 </i>
    <i name="pawaedc">   -222.95100894 </i>
    <i name="eentropy">      0.00000000 </i>
    <i name="bandstr">      3.28338058 </i>
    <i name="atom">    206.13149246 </i>
    <i name="e_fr_energy">    -10.81675392 </i>
    <i name="e_wo_entrp">    -10.81675392 </i>
    <i name="e_0_energy">    -10.81675392 </i>
   </energy>
  </scstep>
  <structure>
   <crystal>
    <varray name="basis" >
     <v>       2.71500000       2.71500000       0.00000000 </v>
     <v>       0.00000000       2.71500000       2.71500000 </v>
     <v>       2.71500000       0.00000000       2.71500000 </v>
    </varray>
    <i name="volume">     40.02575175 </i>
    <varray name="rec_basis" >
     <v>       0.18416206       0.18416206      -0.18416206 </v>
     <v>      -0.18416206       0.18416206       0.18416206 </v>
     <v>       0.18416206      -0.18416206       0.18416206 </v>
    </varray>
   </crystal>
   <varray name="positions" >
    <v>       0.00000000       0.00000000       0.00000000 </v>
    <v>       0.25000000       0.25000000       0.25000000 </v>
   </varray>
  </structure>
  <varray name="forces" >
   <v>      -0.00000000      -0.00000000      -0.00000000 </v>
   <v>       0.00000000       0.00000000       0.00000000 </v>
  </varray>
  <varray name="stress" >
   <v>      21.17173759      -0.00000000       0.00000000 </v>
   <v>       0.00000000      21.17173759       0.00000000 </v>
   <v>      -0.00000000       0.00000000      21.17173759 </v>
  </varray>
  <energy>
   <i name="e_fr_energy">    -10.81675392 </i>
   <i name="e_wo_entrp">    -10.81675392 </i>
   <i name="e_0_energy">    -10.81675392 </i>
  </energy>
  <dos comment="kpoints_opt">
   <i name="efermi">      5.62807670 </i>
   <total>
    <array>
     <dimension dim="1">gridpoints</dimension>
     <dimension dim="2">spin</dimension>
     <field>energy</field>
     <field>total</field>
     <field>integrated</field>
     <set>
      <set comment="spin 1">
       <r>    -8.4909     0.0000     0.0000 </r>
       <r>    -8.4040     0.0000     0.0000 </r>
       <r>    -8.3171     0.0000     0.0000 </r>
       <r>    -8.2302     0.0000     0.0000 </r>
       <r>    -8.1433    -0.0000    -0.0000 </r>
       <r>    -8.0563    -0.0000    -0.0000 </r>
       <r>    -7.9694    -0.0000    -0.0000 </r>
       <r>    -7.8825    -0.0000    -0.0000 </r>
       <r>    -7.7956    -0.0000    -0.0000 </r>
       <r>    -7.7087    -0.0000    -0.0000 </r>
       <r>    -7.6217    -0.0000    -0.0000 </r>
       <r>    -7.5348    -0.0000    -0.0000 </r>
       <r>    -7.4479    -0.0000    -0.0000 </r>
       <r>    -7.3610    -0.0000    -0.0000 </r>
       <r>    -7.2741    -0.0000    -0.0000 </r>
       <r>    -7.1871    -0.0000    -0.0000 </r>
       <r>    -7.1002    -0.0001    -0.0000 </r>
       <r>    -7.0133    -0.0009    -0.0001 </r>
       <r>    -6.9264    -0.0058    -0.0006 </r>
       <r>    -6.8395    -0.0221    -0.0025 </r>
       <r>    -6.7525    -0.0423    -0.0062 </r>
       <r>    -6.6656     0.0116    -0.0052 </r>
       <r>    -6.5787     0.2647     0.0178 </r>
       <r>    -6.4918     0.6662     0.0757 </r>
       <r>    -6.4049     0.9123     0.1550 </r>
       <r>    -6.3180     0.8318     0.2273 </r>
       <r>    -6.2310     0.5912     0.2787 </r>
       <r>    -6.1441     0.4024     0.3137 </r>
       <r>    -6.0572     0.3369     0.3430 </r>
       <r>    -5.9703     0.3504     0.3734 </r>
       <r>    -5.8834     0.3332     0.4024 </r>
       <r>    -5.7964     0.2461     0.4238 </r>
       <r>    -5.7095     0.1934     0.4406 </r>
       <r>    -5.6226     0.2605     0.4632 </r>
       <r>    -5.5357     0.3465     0.4933 </r>
       <r>    -5.4488     0.2947     0.5190 </r>
       <r>    -5.3618     0.1416     0.5313 </r>
       <r>    -5.2749     0.0796     0.5382 </r>
       <r>    -5.1880     0.1908     0.5548 </r>
       <r>    -5.1011     0.3361     0.5840 </r>
       <r>    -5.0142     0.3337     0.6130 </r>
       <r>    -4.9272     0.1886     0.6294 </r>
       <r>    -4.8403     0.0681     0.6353 </r>
       <r>    -4.7534     0.0839     0.6426 </r>
       <r>    -4.6665     0.1857     0.6587 </r>
       <r>    -4.5796     0.2590     0.6812 </r>
       <r>    -4.4926     0.2644     0.7042 </r>
       <r>    -4.4057     0.2450     0.7255 </r>
       <r>    -4.3188     0.2609     0.7482 </r>
       <r>    -4.2319     0.3556     0.7791 </r>
       <r>    -4.1450     0.4890     0.8216 </r>
       <r>    -4.0580     0.5462     0.8691 </r>
       <r>    -3.9711     0.5145     0.9138 </r>
       <r>    -3.8842     0.4737     0.9550 </r>
       <r>    -3.7973     0.4182     0.9913 </r>
       <r>    -3.7104     0.3068     1.0180 </r>
       <r>    -3.6234     0.1859     1.0342 </r>
       <r>    -3.5365     0.1236     1.0449 </r>
       <r>    -3.4496     0.1120     1.0546 </r>
       <r>    -3.3627     0.1443     1.0672 </r>
       <r>    -3.2758     0.2602     1.0898 </r>
       <r>    -3.1888     0.3773     1.1226 </r>
       <r>    -3.1019     0.3341     1.1516 </r>
       <r>    -3.0150     0.1857     1.1678 </r>
       <r>    -2.9281     0.1378     1.1797 </r>
       <r>    -2.8412     0.2322     1.1999 </r>
       <r>    -2.7542     0.3363     1.2292 </r>
       <r>    -2.6673     0.3563     1.2601 </r>
       <r>    -2.5804     0.4135     1.2961 </r>
       <r>    -2.4935     0.8969     1.3740 </r>
       <r>    -2.4066     2.1117     1.5576 </r>
       <r>    -2.3196     3.5478     1.8659 </r>
       <r>    -2.2327     4.0337     2.2165 </r>
       <r>    -2.1458     3.1140     2.4872 </r>
       <r>    -2.0589     1.6098     2.6271 </r>
       <r>    -1.9720     0.5822     2.6777 </r>
       <r>    -1.8850     0.3088     2.7046 </r>
       <r>    -1.7981     0.3748     2.7372 </r>
       <r>    -1.7112     0.3894     2.7710 </r>
       <r>    -1.6243     0.4035     2.8061 </r>
       <r>    -1.5374     0.6459     2.8622 </r>
       <r>    -1.4504     1.0281     2.9516 </r>
       <r>    -1.3635     1.2032     3.0562 </r>
       <r>    -1.2766     1.0009     3.1432 </r>
       <r>    -1.1897     0.5618     3.1920 </r>
       <r>    -1.1028     0.1644     3.2063 </r>
       <r>    -1.0159    -0.0272     3.2039 </r>
       <r>    -0.9289    -0.0492     3.1996 </r>
       <r>    -0.8420     0.0217     3.2015 </r>
       <r>    -0.7551     0.1546     3.2150 </r>
       <r>    -0.6682     0.2811     3.2394 </r>
       <r>    -0.5813     0.3106     3.2664 </r>
       <r>    -0.4943     0.2382     3.2871 </r>
       <r>    -0.4074     0.1256     3.2980 </r>
       <r>    -0.3205     0.0308     3.3007 </r>
       <r>    -0.2336    -0.0111     3.2997 </r>
       <r>    -0.1467     0.0129     3.3009 </r>
       <r>    -0.0597     0.0931     3.3090 </r>
       <r>     0.0272     0.1834     3.3249 </r>
       <r>     0.1141     0.2165     3.3437 </r>
       <r>     0.2010     0.1683     3.3583 </r>
       <r>     0.2879     0.0956     3.3667 </r>
       <r>     0.3749     0.0806     3.3737 </r>
       <r>     0.4618     0.1147     3.3836 </r>
       <r>     0.5487     0.1130     3.3934 </r>
       <r>     0.6356     0.0681     3.3994 </r>
       <r>     0.7225     0.0570     3.4043 </r>
       <r>     0.8095     0.0942     3.4125 </r>
       <r>     0.8964     0.1383     3.4245 </r>
       <r>     0.9833     0.2180     3.4435 </r>
       <r>     1.0702     0.3726     3.4759 </r>
       <r>     1.1571     0.5374     3.5226 </r>
       <r>     1.2441     0.6424     3.5784 </r>
       <r>     1.3310     0.6998     3.6393 </r>
       <r>     1.4179     0.7519     3.7046 </r>
       <r>     1.5048     0.8846     3.7815 </r>
       <r>     1.5917     1.1848     3.8845 </r>
       <r>     1.6787     1.5013     4.0150 </r>
       <r>     1.7656     1.5333     4.1482 </r>
       <r>     1.8525     1.2676     4.2584 </r>
       <r>     1.9394     0.9670     4.3425 </r>
       <r>     2.0263     0.7906     4.4112 </r>
       <r>     2.1133     0.7179     4.4736 </r>
       <r>     2.2002     0.7456     4.5384 </r>
       <r>     2.2871     0.8675     4.6138 </r>
       <r>     2.3740     0.9868     4.6996 </r>
       <r>     2.4609     1.1765     4.8018 </r>
       <r>     2.5479     1.6610     4.9462 </r>
       <r>     2.6348     2.2286     5.1399 </r>
       <r>     2.7217     2.3026     5.3401 </r>
       <r>     2.8086     1.8059     5.4970 </r>
       <r>     2.8955     1.2598     5.6065 </r>
       <r>     2.9825     1.0536     5.6981 </r>
       <r>     3.0694     1.0383     5.7884 </r>
       <r>     3.1563     0.8380     5.8612 </r>
       <r>     3.2432     0.5057     5.9052 </r>
       <r>     3.3301     0.4320     5.9427 </r>
       <r>     3.4171     0.6066     5.9954 </r>
       <r>     3.5040     0.6365     6.0508 </r>
       <r>     3.5909     0.4352     6.0886 </r>
       <r>     3.6778     0.3382     6.1180 </r>
       <r>     3.7647     0.5209     6.1633 </r>
       <r>     3.8517     0.7051     6.2245 </r>
       <r>     3.9386     0.6355     6.2798 </r>
       <r>     4.0255     0.5035     6.3235 </r>
       <r>     4.1124     0.6455     6.3797 </r>
       <r>     4.1993     1.1157     6.4766 </r>
       <r>     4.2862     1.5851     6.6144 </r>
       <r>     4.3732     1.6090     6.7543 </r>
       <r>     4.4601     1.2054     6.8590 </r>
       <r>     4.5470     0.8186     6.9302 </r>
       <r>     4.6339     0.6663     6.9881 </r>
       <r>     4.7208     0.6648     7.0459 </r>
       <r>     4.8078     0.7305     7.1094 </r>
       <r>     4.8947     0.7797     7.1771 </r>
       <r>     4.9816     0.7620     7.2434 </r>
       <r>     5.0685     0.7503     7.3086 </r>
       <r>     5.1554     0.8310     7.3808 </r>
       <r>     5.2424     1.0056     7.4682 </r>
       <r>     5.3293     1.2885     7.5802 </r>
       <r>     5.4162     1.6573     7.7243 </r>
       <r>     5.5031     1.7334     7.8749 </r>
       <r>     5.5900     1.1811     7.9776 </r>
       <r>     5.6770     0.3954     8.0120 </r>
       <r>     5.7639    -0.0540     8.0073 </r>
       <r>     5.8508    -0.1428     7.9949 </r>
       <r>     5.9377    -0.0450     7.9909 </r>
       <r>     6.0246     0.3158     8.0184 </r>
       <r>     6.1116     1.0468     8.1094 </r>
       <r>     6.1985     1.8064     8.2664 </r>
       <r>     6.2854     2.0140     8.4415 </r>
       <r>     6.3723     1.6791     8.5874 </r>
       <r>     6.4592     1.2849     8.6991 </r>
       <r>     6.5462     0.9950     8.7856 </r>
       <r>     6.6331     0.7874     8.8540 </r>
       <r>     6.7200     0.7369     8.9181 </r>
       <r>     6.8069     0.7513     8.9834 </r>
       <r>     6.8938     0.7065     9.0448 </r>
       <r>     6.9808     0.7306     9.1083 </r>
       <r>     7.0677     0.9155     9.1878 </r>
       <r>     7.1546     1.0710     9.2809 </r>
       <r>     7.2415     0.9819     9.3663 </r>
       <r>     7.3284     0.7106     9.4280 </r>
       <r>     7.4154     0.5461     9.4755 </r>
       <r>     7.5023     0.6250     9.5298 </r>
       <r>     7.5892     0.7708     9.5968 </r>
       <r>     7.6761     0.7529     9.6623 </r>
       <r>     7.7630     0.5709     9.7119 </r>
       <r>     7.8500     0.5578     9.7604 </r>
       <r>     7.9369     1.0875     9.8549 </r>
       <r>     8.0238     1.9583    10.0251 </r>
       <r>     8.1107     2.4242    10.2358 </r>
       <r>     8.1976     2.1890    10.4261 </r>
       <r>     8.2846     1.7319    10.5766 </r>
       <r>     8.3715     1.4476    10.7024 </r>
       <r>     8.4584     1.2951    10.8150 </r>
       <r>     8.5453     1.2236    10.9214 </r>
       <r>     8.6322     1.3510    11.0388 </r>
       <r>     8.7192     1.8169    11.1967 </r>
       <r>     8.8061     2.5200    11.4158 </r>
       <r>     8.8930     2.9962    11.6762 </r>
       <r>     8.9799     2.8496    11.9239 </r>
       <r>     9.0668     2.1558    12.1113 </r>
       <r>     9.1538     1.3393    12.2277 </r>
       <r>     9.2407     0.8642    12.3028 </r>
       <r>     9.3276     0.8047    12.3727 </r>
       <r>     9.4145     0.7912    12.4415 </r>
       <r>     9.5014     0.6386    12.4970 </r>
       <r>     9.5884     0.6203    12.5509 </r>
       <r>     9.6753     0.9318    12.6319 </r>
       <r>     9.7622     1.3062    12.7455 </r>
       <r>     9.8491     1.3314    12.8612 </r>
       <r>     9.9360     0.9625    12.9448 </r>
       <r>    10.0229     0.4918    12.9876 </r>
       <r>    10.1099     0.1740    13.0027 </r>
       <r>    10.1968     0.1004    13.0115 </r>
       <r>    10.2837     0.2255    13.0311 </r>
       <r>    10.3706     0.4551    13.0706 </r>
       <r>    10.4575     0.6909    13.1307 </r>
       <r>    10.5445     0.7577    13.1965 </r>
       <r>    10.6314     0.6028    13.2489 </r>
       <r>    10.7183     0.4817    13.2908 </r>
       <r>    10.8052     0.6157    13.3443 </r>
       <r>    10.8921     0.8759    13.4204 </r>
       <r>    10.9791     0.9660    13.5044 </r>
       <r>    11.0660     0.7939    13.5734 </r>
       <r>    11.1529     0.5490    13.6211 </r>
       <r>    11.2398     0.4263    13.6582 </r>
       <r>    11.3267     0.4321    13.6957 </r>
       <r>    11.4137     0.4947    13.7387 </r>
       <r>    11.5006     0.5872    13.7898 </r>
       <r>    11.5875     0.6565    13.8468 </r>
       <r>    11.6744     0.6172    13.9005 </r>
       <r>    11.7613     0.5019    13.9441 </r>
       <r>    11.8483     0.4555    13.9837 </r>
       <r>    11.9352     0.5006    14.0272 </r>
       <r>    12.0221     0.4976    14.0705 </r>
       <r>    12.1090     0.4524    14.1098 </r>
       <r>    12.1959     0.4933    14.1527 </r>
       <r>    12.2829     0.5103    14.1970 </r>
       <r>    12.3698     0.3464    14.2271 </r>
       <r>    12.4567     0.1469    14.2399 </r>
       <r>    12.5436     0.0978    14.2484 </r>
       <r>    12.6305     0.1723    14.2634 </r>
       <r>    12.7175     0.2984    14.2893 </r>
       <r>    12.8044     0.4830    14.3313 </r>
       <r>    12.8913     0.7026    14.3924 </r>
       <r>    12.9782     0.7868    14.4608 </r>
       <r>    13.0651     0.6414    14.5165 </r>
       <r>    13.1521     0.5230    14.5620 </r>
       <r>    13.2390     0.6461    14.6181 </r>
       <r>    13.3259     0.7999    14.6877 </r>
       <r>    13.4128     0.7781    14.7553 </r>
       <r>    13.4997     0.7188    14.8178 </r>
       <r>    13.5867     0.7607    14.8839 </r>
       <r>    13.6736     0.8141    14.9546 </r>
       <r>    13.7605     0.7603    15.0207 </r>
       <r>    13.8474     0.5877    15.0718 </r>
       <r>    13.9343     0.3710    15.1041 </r>
       <r>    14.0213     0.1947    15.1210 </r>
       <r>    14.1082     0.0982    15.1295 </r>
       <r>    14.1951     0.1262    15.1405 </r>
       <r>    14.2820     0.2979    15.1664 </r>
       <r>    14.3689     0.4797    15.2081 </r>
       <r>    14.4559     0.4892    15.2506 </r>
       <r>    14.5428     0.3464    15.2807 </r>
       <r>    14.6297     0.2404    15.3016 </r>
       <r>    14.7166     0.2864    15.3265 </r>
       <r>    14.8035     0.4290    15.3638 </r>
       <r>    14.8905     0.5541    15.4119 </r>
       <r>    14.9774     0.6209    15.4659 </r>
       <r>    15.0643     0.5961    15.5177 </r>
       <r>    15.1512     0.4396    15.5559 </r>
       <r>    15.2381     0.2812    15.5804 </r>
       <r>    15.3250     0.3301    15.6091 </r>
       <r>    15.4120     0.6556    15.6661 </r>
       <r>    15.4989     1.1155    15.7630 </r>
       <r>    15.5858     1.3341    15.8790 </r>
       <r>    15.6727     1.0262    15.9682 </r>
       <r>    15.7596     0.4368    16.0061 </r>
       <r>    15.8466     0.0372    16.0094 </r>
       <r>    15.9335    -0.0612    16.0041 </r>
       <r>    16.0204    -0.0352    16.0010 </r>
       <r>    16.1073    -0.0097    16.0002 </r>
       <r>    16.1942    -0.0016    16.0000 </r>
       <r>    16.2812    -0.0002    16.0000 </r>
       <r>    16.3681    -0.0000    16.0000 </r>
       <r>    16.4550    -0.0000    16.0000 </r>
       <r>    16.5419    -0.0000    16.0000 </r>
       <r>    16.6288    -0.0000    16.0000 </r>
       <r>    16.7158    -0.0000    16.0000 </r>
       <r>    16.8027    -0.0000    16.0000 </r>
       <r>    16.8896    -0.0000    16.0000 </r>
       <r>    16.9765     0.0000    16.0000 </r>
       <r>    17.0634     0.0000    16.0000 </r>
       <r>    17.1504     0.0000    16.0000 </r>
       <r>    17.2373     0.0000    16.0000 </r>
       <r>    17.3242     0.0000    16.0000 </r>
       <r>    17.4111     0.0000    16.0000 </r>
       <r>    17.4980     0.0000    16.0000 </r>
       <r>    17.5850     0.0000    16.0000 </r>
      </set>
     </set>
    </array>
   </total>
  </dos>
  <eigenvalues_kpoints_opt comment="kpoints_opt">
   <kpoints>
    <varray name="kpointlist" >
     <v>       0.00000000       0.00000000       0.00000000 </v>
     <v>       0.05555556       0.00000000       0.05555556 </v>
     <v>       0.11111111       0.00000000       0.11111111 </v>
     <v>       0.16666667       0.00000000       0.16666667 </v>
     <v>       0.22222222       0.00000000       0.22222222 </v>
     <v>       0.27777778       0.00000000       0.27777778 </v>
     <v>       0.33333333       0.00000000       0.33333333 </v>
     <v>       0.38888889       0.00000000       0.38888889 </v>
     <v>       0.44444444       0.00000000       0.44444444 </v>
     <v>       0.50000000       0.00000000       0.50000000 </v>
     <v>       0.50000000       0.00000000       0.50000000 </v>
     <v>       0.51388889       0.02777778       0.51388889 </v>
     <v>       0.52777778       0.05555556       0.52777778 </v>
     <v>       0.54166667       0.08333333       0.54166667 </v>
     <v>       0.55555556       0.11111111       0.55555556 </v>
     <v>       0.56944444       0.13888889       0.56944444 </v>
     <v>       0.58333333       0.16666667       0.58333333 </v>
     <v>       0.59722222       0.19444444       0.59722222 </v>
     <v>       0.61111111       0.22222222       0.61111111 </v>
     <v>       0.62500000       0.25000000       0.62500000 </v>
     <v>       0.37500000       0.37500000       0.75000000 </v>
     <v>       0.33333333       0.33333333       0.66666667 </v>
     <v>       0.29166667       0.29166667       0.58333333 </v>
     <v>       0.25000000       0.25000000       0.50000000 </v>
     <v>       0.20833333       0.20833333       0.41666667 </v>
     <v>       0.16666667       0.16666667       0.33333333 </v>
     <v>       0.12500000       0.12500000       0.25000000 </v>
     <v>       0.08333333       0.08333333       0.16666667 </v>
     <v>       0.04166667       0.04166667       0.08333333 </v>
     <v>       0.00000000       0.00000000       0.00000000 </v>
     <v>       0.00000000       0.00000000       0.00000000 </v>
     <v>       0.05555556       0.05555556       0.05555556 </v>
     <v>       0.11111111       0.11111111       0.11111111 </v>
     <v>       0.16666667       0.16666667       0.16666667 </v>
     <v>       0.22222222       0.22222222       0.22222222 </v>
     <v>       0.27777778       0.27777778       0.27777778 </v>
     <v>       0.33333333       0.33333333       0.33333333 </v>
     <v>       0.38888889       0.38888889       0.38888889 </v>
     <v>       0.44444444       0.44444444       0.44444444 </v>
     <v>       0.50000000       0.50000000       0.50000000 </v>
     <v>       0.50000000       0.50000000       0.50000000 </v>
     <v>       0.50000000       0.47222222       0.52777778 </v>
     <v>       0.50000000       0.44444444       0.55555556 </v>
     <v>       0.50000000       0.41666667       0.58333333 </v>
     <v>       0.50000000       0.38888889       0.61111111 </v>
     <v>       0.50000000       0.36111111       0.63888889 </v>
     <v>       0.50000000       0.33333333       0.66666667 </v>
     <v>       0.50000000       0.30555556       0.69444444 </v>
     <v>       0.50000000       0.27777778       0.72222222 </v>
     <v>       0.50000000       0.25000000       0.75000000 </v>
     <v>       0.50000000       0.25000000       0.75000000 </v>
     <v>       0.50000000       0.22222222       0.72222222 </v>
     <v>       0.50000000       0.19444444       0.69444444 </v>
     <v>       0.50000000       0.16666667       0.66666667 </v>
     <v>       0.50000000       0.13888889       0.63888889 </v>
     <v>       0.50000000       0.11111111       0.61111111 </v>
     <v>       0.50000000       0.08333333       0.58333333 </v>
     <v>       0.50000000       0.05555556       0.55555556 </v>
     <v>       0.50000000       0.02777778       0.52777778 </v>
     <v>       0.50000000       0.00000000       0.50000000 </v>
    </varray>
    <varray name="weights" >
     <v>       0.01666667 </v>
     <v>       0.01666667 </v>
     <v>       0.01666667 </v>
     <v>       0.01666667 </v>
     <v>       0.01666667 </v>
     <v>       0.01666667 </v>
     <v>       0.01666667 </v>
     <v>       0.01666667 </v>
     <v>       0.01666667 </v>
     <v>       0.01666667 </v>
     <v>       0.01666667 </v>
     <v>       0.01666667 </v>
     <v>       0.01666667 </v>
     <v>       0.01666667 </v>
     <v>       0.01666667 </v>
     <v>       0.01666667 </v>
     <v>       0.01666667 </v>
     <v>       0.01666667 </v>
     <v>       0.01666667 </v>
     <v>       0.01666667 </v>
     <v>       0.01666667 </v>
     <v>       0.01666667 </v>
     <v>       0.01666667 </v>
     <v>       0.01666667 </v>
     <v>       0.01666667 </v>
     <v>       0.01666667 </v>
     <v>       0.01666667 </v>
     <v>       0.01666667 </v>
     <v>       0.01666667 </v>
     <v>       0.01666667 </v>
     <v>       0.01666667 </v>
     <v>       0.01666667 </v>
     <v>       0.01666667 </v>
     <v>       0.01666667 </v>
     <v>       0.01666667 </v>
     <v>       0.01666667 </v>
     <v>       0.01666667 </v>
     <v>       0.01666667 </v>
     <v>       0.01666667 </v>
     <v>       0.01666667 </v>
     <v>       0.01666667 </v>
     <v>       0.01666667 </v>
     <v>       0.01666667 </v>
     <v>       0.01666667 </v>
     <v>       0.01666667 </v>
     <v>       0.01666667 </v>
     <v>       0.01666667 </v>
     <v>       0.01666667 </v>
     <v>       0.01666667 </v>
     <v>       0.01666667 </v>
     <v>       0.01666667 </v>
     <v>       0.01666667 </v>
     <v>       0.01666667 </v>
     <v>       0.01666667 </v>
     <v>       0.01666667 </v>
     <v>       0.01666667 </v>
     <v>       0.01666667 </v>
     <v>       0.01666667 </v>
     <v>       0.01666667 </v>
     <v>       0.01666667 </v>
    </varray>
   </kpoints>
   <eigenvalues>
    <array>
     <dimension dim="1">band</dimension>
     <dimension dim="2">kpoint</dimension>
     <dimension dim="3">spin</dimension>
     <field>eigene</field>
     <set>
      <set comment="spin 1">
       <set comment="kpoint 1">
        <r>   -6.4909 </r>
        <r>    5.4736 </r>
        <r>    5.4736 </r>
        <r>    5.4736 </r>
        <r>    8.0356 </r>
        <r>    8.0356 </r>
        <r>    8.0356 </r>
        <r>    8.8415 </r>
       </set>
       <set comment="kpoint 2">
        <r>   -6.4369 </r>
        <r>    5.1340 </r>
        <r>    5.2604 </r>
        <r>    5.2604 </r>
        <r>    7.9066 </r>
        <r>    8.3153 </r>
        <r>    8.3153 </r>
        <r>    9.1676 </r>
       </set>
       <set comment="kpoint 3">
        <r>   -6.2751 </r>
        <r>    4.3632 </r>
        <r>    4.7949 </r>
        <r>    4.7949 </r>
        <r>    7.5818 </r>
        <r>    8.9788 </r>
        <r>    8.9788 </r>
        <r>    9.7754 </r>
       </set>
       <set comment="kpoint 4">
        <r>   -6.0067 </r>
        <r>    3.4356 </r>
        <r>    4.2795 </r>
        <r>    4.2795 </r>
        <r>    7.1769 </r>
        <r>    9.7756 </r>
        <r>    9.8195 </r>
        <r>    9.8195 </r>
       </set>
       <set comment="kpoint 5">
        <r>   -5.6336 </r>
        <r>    2.4544 </r>
        <r>    3.7986 </r>
        <r>    3.7986 </r>
        <r>    6.7801 </r>
        <r>    9.0307 </r>
        <r>   10.7476 </r>
        <r>   10.7476 </r>
       </set>
       <set comment="kpoint 6">
        <r>   -5.1588 </r>
        <r>    1.4566 </r>
        <r>    3.3851 </r>
        <r>    3.3851 </r>
        <r>    6.4439 </r>
        <r>    8.1958 </r>
        <r>   11.7263 </r>
        <r>   11.7263 </r>
       </set>
       <set comment="kpoint 7">
        <r>   -4.5862 </r>
        <r>    0.4618 </r>
        <r>    3.0543 </r>
        <r>    3.0543 </r>
        <r>    6.1989 </r>
        <r>    7.4643 </r>
        <r>   12.7391 </r>
        <r>   12.7391 </r>
       </set>
       <set comment="kpoint 8">
        <r>   -3.9213 </r>
        <r>   -0.5142 </r>
        <r>    2.8139 </r>
        <r>    2.8139 </r>
        <r>    6.0645 </r>
        <r>    6.8806 </r>
        <r>   13.7774 </r>
        <r>   13.7774 </r>
       </set>
       <set comment="kpoint 9">
        <r>   -3.1712 </r>
        <r>   -1.4550 </r>
        <r>    2.6683 </r>
        <r>    2.6683 </r>
        <r>    6.0550 </r>
        <r>    6.4541 </r>
        <r>   14.8230 </r>
        <r>   14.8230 </r>
       </set>
       <set comment="kpoint 10">
        <r>   -2.3453 </r>
        <r>   -2.3453 </r>
        <r>    2.6195 </r>
        <r>    2.6195 </r>
        <r>    6.1815 </r>
        <r>    6.1815 </r>
        <r>   15.5851 </r>
        <r>   15.5858 </r>
       </set>
       <set comment="kpoint 11">
        <r>   -2.3453 </r>
        <r>   -2.3453 </r>
        <r>    2.6195 </r>
        <r>    2.6195 </r>
        <r>    6.1815 </r>
        <r>    6.1815 </r>
        <r>   15.5852 </r>
        <r>   15.5875 </r>
       </set>
       <set comment="kpoint 12">
        <r>   -2.3481 </r>
        <r>   -2.3380 </r>
        <r>    2.5735 </r>
        <r>    2.6249 </r>
        <r>    6.1877 </r>
        <r>    6.2499 </r>
        <r>   15.5102 </r>
        <r>   15.5464 </r>
       </set>
       <set comment="kpoint 13">
        <r>   -2.3569 </r>
        <r>   -2.3161 </r>
        <r>    2.4462 </r>
        <r>    2.6412 </r>
        <r>    6.2065 </r>
        <r>    6.4446 </r>
        <r>   15.3385 </r>
        <r>   15.4421 </r>
       </set>
       <set comment="kpoint 14">
        <r>   -2.3728 </r>
        <r>   -2.2796 </r>
        <r>    2.2632 </r>
        <r>    2.6682 </r>
        <r>    6.2377 </r>
        <r>    6.7411 </r>
        <r>   15.0252 </r>
        <r>   15.2596 </r>
       </set>
       <set comment="kpoint 15">
        <r>   -2.3979 </r>
        <r>   -2.2285 </r>
        <r>    2.0514 </r>
        <r>    2.7059 </r>
        <r>    6.2813 </r>
        <r>    7.1142 </r>
        <r>   14.7028 </r>
        <r>   15.0625 </r>
       </set>
       <set comment="kpoint 16">
        <r>   -2.4346 </r>
        <r>   -2.1628 </r>
        <r>    1.8333 </r>
        <r>    2.7541 </r>
        <r>    6.3370 </r>
        <r>    7.5439 </r>
        <r>   14.3552 </r>
        <r>   14.8550 </r>
       </set>
       <set comment="kpoint 17">
        <r>   -2.4863 </r>
        <r>   -2.0826 </r>
        <r>    1.6254 </r>
        <r>    2.8126 </r>
        <r>    6.4046 </r>
        <r>    8.0161 </r>
        <r>   14.0011 </r>
        <r>   14.5451 </r>
       </set>
       <set comment="kpoint 18">
        <r>   -2.5559 </r>
        <r>   -1.9879 </r>
        <r>    1.4399 </r>
        <r>    2.8811 </r>
        <r>    6.4839 </r>
        <r>    8.5211 </r>
        <r>   13.6473 </r>
        <r>   14.2686 </r>
       </set>
       <set comment="kpoint 19">
        <r>   -2.6462 </r>
        <r>   -1.8787 </r>
        <r>    1.2858 </r>
        <r>    2.9593 </r>
        <r>    6.5745 </r>
        <r>    9.0520 </r>
        <r>   13.2916 </r>
        <r>   13.8534 </r>
       </set>
       <set comment="kpoint 20">
        <r>   -2.7590 </r>
        <r>   -1.7552 </r>
        <r>    1.1688 </r>
        <r>    3.0469 </r>
        <r>    6.6759 </r>
        <r>    9.6026 </r>
        <r>   12.9437 </r>
        <r>   13.5093 </r>
       </set>
       <set comment="kpoint 21">
        <r>   -2.7590 </r>
        <r>   -1.7552 </r>
        <r>    1.1688 </r>
        <r>    3.0469 </r>
        <r>    6.6759 </r>
        <r>    9.6026 </r>
        <r>   12.9441 </r>
        <r>   13.4955 </r>
       </set>
       <set comment="kpoint 22">
        <r>   -3.2256 </r>
        <r>   -1.2987 </r>
        <r>    1.0578 </r>
        <r>    3.3604 </r>
        <r>    7.0393 </r>
        <r>   11.2761 </r>
        <r>   11.9513 </r>
        <r>   12.5536 </r>
       </set>
       <set comment="kpoint 23">
        <r>   -3.8209 </r>
        <r>   -0.7153 </r>
        <r>    1.2696 </r>
        <r>    3.7354 </r>
        <r>    7.4705 </r>
        <r>   11.0534 </r>
        <r>   11.3792 </r>
        <r>   12.1953 </r>
       </set>
       <set comment="kpoint 24">
        <r>   -4.4465 </r>
        <r>   -0.0081 </r>
        <r>    1.7184 </r>
        <r>    4.1449 </r>
        <r>    7.9226 </r>
        <r>   10.2632 </r>
        <r>   10.6085 </r>
        <r>   11.6223 </r>
       </set>
       <set comment="kpoint 25">
        <r>   -5.0329 </r>
        <r>    0.8180 </r>
        <r>    2.3328 </r>
        <r>    4.5507 </r>
        <r>    8.3080 </r>
        <r>    9.5878 </r>
        <r>    9.9132 </r>
        <r>   11.2590 </r>
       </set>
       <set comment="kpoint 26">
        <r>   -5.5413 </r>
        <r>    1.7554 </r>
        <r>    3.0592 </r>
        <r>    4.9084 </r>
        <r>    8.5140 </r>
        <r>    9.0315 </r>
        <r>    9.3221 </r>
        <r>   11.1406 </r>
       </set>
       <set comment="kpoint 27">
        <r>   -5.9505 </r>
        <r>    2.7890 </r>
        <r>    3.8436 </r>
        <r>    5.1807 </r>
        <r>    8.5161 </r>
        <r>    8.5967 </r>
        <r>    8.8336 </r>
        <r>   11.0250 </r>
       </set>
       <set comment="kpoint 28">
        <r>   -6.2489 </r>
        <r>    3.8838 </r>
        <r>    4.6090 </r>
        <r>    5.3556 </r>
        <r>    8.2853 </r>
        <r>    8.4063 </r>
        <r>    8.4416 </r>
        <r>   10.3013 </r>
       </set>
       <set comment="kpoint 29">
        <r>   -6.4302 </r>
        <r>    4.9275 </r>
        <r>    5.2227 </r>
        <r>    5.4464 </r>
        <r>    8.0980 </r>
        <r>    8.1537 </r>
        <r>    8.2334 </r>
        <r>    9.2768 </r>
       </set>
       <set comment="kpoint 30">
        <r>   -6.4909 </r>
        <r>    5.4736 </r>
        <r>    5.4736 </r>
        <r>    5.4736 </r>
        <r>    8.0356 </r>
        <r>    8.0356 </r>
        <r>    8.0356 </r>
        <r>    8.8415 </r>
       </set>
       <set comment="kpoint 31">
        <r>   -6.4909 </r>
        <r>    5.4736 </r>
        <r>    5.4736 </r>
        <r>    5.4736 </r>
        <r>    8.0356 </r>
        <r>    8.0356 </r>
        <r>    8.0356 </r>
        <r>    8.8415 </r>
       </set>
       <set comment="kpoint 32">
        <r>   -6.4504 </r>
        <r>    5.0417 </r>
        <r>    5.4059 </r>
        <r>    5.4059 </r>
        <r>    8.0989 </r>
        <r>    8.1349 </r>
        <r>    8.1349 </r>
        <r>    9.1403 </r>
       </set>
       <set comment="kpoint 33">
        <r>   -6.3294 </r>
        <r>    4.1287 </r>
        <r>    5.2356 </r>
        <r>    5.2356 </r>
        <r>    8.0179 </r>
        <r>    8.3858 </r>
        <r>    8.3858 </r>
        <r>    9.9486 </r>
       </set>
       <set comment="kpoint 34">
        <r>   -6.1297 </r>
        <r>    3.0917 </r>
        <r>    5.0228 </r>
        <r>    5.0228 </r>
        <r>    7.8246 </r>
        <r>    8.6837 </r>
        <r>    8.6837 </r>
        <r>   10.9292 </r>
       </set>
       <set comment="kpoint 35">
        <r>   -5.8547 </r>
        <r>    2.0506 </r>
        <r>    4.8109 </r>
        <r>    4.8109 </r>
        <r>    7.6069 </r>
        <r>    8.9145 </r>
        <r>    8.9145 </r>
        <r>   11.9214 </r>
       </set>
       <set comment="kpoint 36">
        <r>   -5.5115 </r>
        <r>    1.0547 </r>
        <r>    4.6236 </r>
        <r>    4.6236 </r>
        <r>    7.4045 </r>
        <r>    9.0067 </r>
        <r>    9.0067 </r>
        <r>   12.8581 </r>
       </set>
       <set comment="kpoint 37">
        <r>   -5.1138 </r>
        <r>    0.1371 </r>
        <r>    4.4724 </r>
        <r>    4.4724 </r>
        <r>    7.2365 </r>
        <r>    8.9796 </r>
        <r>    8.9796 </r>
        <r>   13.3487 </r>
       </set>
       <set comment="kpoint 38">
        <r>   -4.6923 </r>
        <r>   -0.6612 </r>
        <r>    4.3627 </r>
        <r>    4.3627 </r>
        <r>    7.1123 </r>
        <r>    8.9037 </r>
        <r>    8.9037 </r>
        <r>   13.3356 </r>
       </set>
       <set comment="kpoint 39">
        <r>   -4.3218 </r>
        <r>   -1.2597 </r>
        <r>    4.2963 </r>
        <r>    4.2963 </r>
        <r>    7.0365 </r>
        <r>    8.8375 </r>
        <r>    8.8375 </r>
        <r>   13.2414 </r>
       </set>
       <set comment="kpoint 40">
        <r>   -4.1586 </r>
        <r>   -1.4991 </r>
        <r>    4.2742 </r>
        <r>    4.2742 </r>
        <r>    7.0111 </r>
        <r>    8.8125 </r>
        <r>    8.8125 </r>
        <r>   13.2028 </r>
       </set>
       <set comment="kpoint 41">
        <r>   -4.1586 </r>
        <r>   -1.4991 </r>
        <r>    4.2742 </r>
        <r>    4.2742 </r>
        <r>    7.0111 </r>
        <r>    8.8125 </r>
        <r>    8.8125 </r>
        <r>   13.2028 </r>
       </set>
       <set comment="kpoint 42">
        <r>   -4.1316 </r>
        <r>   -1.4849 </r>
        <r>    4.0347 </r>
        <r>    4.2233 </r>
        <r>    7.2283 </r>
        <r>    8.7676 </r>
        <r>    8.9223 </r>
        <r>   13.3198 </r>
       </set>
       <set comment="kpoint 43">
        <r>   -4.0507 </r>
        <r>   -1.4450 </r>
        <r>    3.4944 </r>
        <r>    4.0717 </r>
        <r>    7.6630 </r>
        <r>    8.6696 </r>
        <r>    9.2930 </r>
        <r>   13.5564 </r>
       </set>
       <set comment="kpoint 44">
        <r>   -3.9168 </r>
        <r>   -1.3882 </r>
        <r>    2.8740 </r>
        <r>    3.8250 </r>
        <r>    8.0575 </r>
        <r>    8.5887 </r>
        <r>    9.9678 </r>
        <r>   13.5593 </r>
       </set>
       <set comment="kpoint 45">
        <r>   -3.7312 </r>
        <r>   -1.3329 </r>
        <r>    2.2838 </r>
        <r>    3.4986 </r>
        <r>    8.3847 </r>
        <r>    8.5772 </r>
        <r>   10.8766 </r>
        <r>   12.9657 </r>
       </set>
       <set comment="kpoint 46">
        <r>   -3.4963 </r>
        <r>   -1.3119 </r>
        <r>    1.7923 </r>
        <r>    3.1173 </r>
        <r>    8.6569 </r>
        <r>    8.6988 </r>
        <r>   11.9198 </r>
        <r>   12.2402 </r>
       </set>
       <set comment="kpoint 47">
        <r>   -3.2155 </r>
        <r>   -1.3718 </r>
        <r>    1.4615 </r>
        <r>    2.7101 </r>
        <r>    8.8289 </r>
        <r>    9.0317 </r>
        <r>   11.5758 </r>
        <r>   11.9946 </r>
       </set>
       <set comment="kpoint 48">
        <r>   -2.8949 </r>
        <r>   -1.5491 </r>
        <r>    1.3342 </r>
        <r>    2.3057 </r>
        <r>    9.0846 </r>
        <r>    9.3900 </r>
        <r>   10.9831 </r>
        <r>   11.4263 </r>
       </set>
       <set comment="kpoint 49">
        <r>   -2.5445 </r>
        <r>   -1.8344 </r>
        <r>    1.4024 </r>
        <r>    1.9318 </r>
        <r>    9.4082 </r>
        <r>    9.7353 </r>
        <r>   10.5074 </r>
        <r>   10.9012 </r>
       </set>
       <set comment="kpoint 50">
        <r>   -2.1812 </r>
        <r>   -2.1812 </r>
        <r>    1.6182 </r>
        <r>    1.6182 </r>
        <r>    9.7436 </r>
        <r>    9.7436 </r>
        <r>   10.4769 </r>
        <r>   10.4769 </r>
       </set>
       <set comment="kpoint 51">
        <r>   -2.1812 </r>
        <r>   -2.1812 </r>
        <r>    1.6182 </r>
        <r>    1.6182 </r>
        <r>    9.7436 </r>
        <r>    9.7436 </r>
        <r>   10.4769 </r>
        <r>   10.4769 </r>
       </set>
       <set comment="kpoint 52">
        <r>   -2.1866 </r>
        <r>   -2.1866 </r>
        <r>    1.6424 </r>
        <r>    1.6424 </r>
        <r>    9.3646 </r>
        <r>    9.3646 </r>
        <r>   10.8825 </r>
        <r>   10.8825 </r>
       </set>
       <set comment="kpoint 53">
        <r>   -2.2021 </r>
        <r>   -2.2021 </r>
        <r>    1.7135 </r>
        <r>    1.7135 </r>
        <r>    8.7892 </r>
        <r>    8.7892 </r>
        <r>   11.5379 </r>
        <r>   11.5379 </r>
       </set>
       <set comment="kpoint 54">
        <r>   -2.2253 </r>
        <r>   -2.2253 </r>
        <r>    1.8263 </r>
        <r>    1.8263 </r>
        <r>    8.2221 </r>
        <r>    8.2221 </r>
        <r>   12.2391 </r>
        <r>   12.2391 </r>
       </set>
       <set comment="kpoint 55">
        <r>   -2.2529 </r>
        <r>   -2.2529 </r>
        <r>    1.9725 </r>
        <r>    1.9725 </r>
        <r>    7.6908 </r>
        <r>    7.6908 </r>
        <r>   12.9590 </r>
        <r>   12.9590 </r>
       </set>
       <set comment="kpoint 56">
        <r>   -2.2813 </r>
        <r>   -2.2813 </r>
        <r>    2.1402 </r>
        <r>    2.1402 </r>
        <r>    7.2101 </r>
        <r>    7.2101 </r>
        <r>   13.6829 </r>
        <r>   13.6829 </r>
       </set>
       <set comment="kpoint 57">
        <r>   -2.3071 </r>
        <r>   -2.3071 </r>
        <r>    2.3128 </r>
        <r>    2.3128 </r>
        <r>    6.7960 </r>
        <r>    6.7960 </r>
        <r>   14.3886 </r>
        <r>   14.3886 </r>
       </set>
       <set comment="kpoint 58">
        <r>   -2.3277 </r>
        <r>   -2.3276 </r>
        <r>    2.4681 </r>
        <r>    2.4681 </r>
        <r>    6.4693 </r>
        <r>    6.4693 </r>
        <r>   15.0229 </r>
        <r>   15.0231 </r>
       </set>
       <set comment="kpoint 59">
        <r>   -2.3408 </r>
        <r>   -2.3408 </r>
        <r>    2.5789 </r>
        <r>    2.5789 </r>
        <r>    6.2562 </r>
        <r>    6.2562 </r>
        <r>   15.4549 </r>
        <r>   15.4559 </r>
       </set>
       <set comment="kpoint 60">
        <r>   -2.3453 </r>
        <r>   -2.3453 </r>
        <r>    2.6195 </r>
        <r>    2.6195 </r>
        <r>    6.1815 </r>
        <r>    6.1815 </r>
        <r>   15.5852 </r>
        <r>   15.5857 </r>
       </set>
      </set>
     </set>
    </array>
   </eigenvalues>
  </eigenvalues_kpoints_opt>
  <time name="totalsc">   47.19   28.21</time>
  <eigenvalues>
   <array>
    <dimension dim="1">band</dimension>
    <dimension dim="2">kpoint</dimension>
    <dimension dim="3">spin</dimension>
    <field>eigene</field>
    <field>occ</field>
    <set>
     <set comment="spin 1">
      <set comment="kpoint 1">
       <r>   -6.4909    1.0000 </r>
       <r>    5.4736    1.0000 </r>
       <r>    5.4736    1.0000 </r>
       <r>    5.4736    1.0000 </r>
       <r>    8.0356    0.0000 </r>
       <r>    8.0356    0.0000 </r>
       <r>    8.0356    0.0000 </r>
       <r>    8.8415    0.0000 </r>
      </set>
      <set comment="kpoint 2">
       <r>   -6.1297    1.0000 </r>
       <r>    3.0917    1.0000 </r>
       <r>    5.0228    1.0000 </r>
       <r>    5.0228    1.0000 </r>
       <r>    7.8246    0.0000 </r>
       <r>    8.6837    0.0000 </r>
       <r>    8.6837    0.0000 </r>
       <r>   10.9292    0.0000 </r>
      </set>
      <set comment="kpoint 3">
       <r>   -5.1138    1.0000 </r>
       <r>    0.1371    1.0000 </r>
       <r>    4.4724    1.0000 </r>
       <r>    4.4724    1.0000 </r>
       <r>    7.2365    0.0000 </r>
       <r>    8.9796    0.0000 </r>
       <r>    8.9796    0.0000 </r>
       <r>   13.3438    0.0000 </r>
      </set>
      <set comment="kpoint 4">
       <r>   -4.1586    1.0000 </r>
       <r>   -1.4991    1.0000 </r>
       <r>    4.2742    1.0000 </r>
       <r>    4.2742    1.0000 </r>
       <r>    7.0111    0.0000 </r>
       <r>    8.8125    0.0000 </r>
       <r>    8.8125    0.0000 </r>
       <r>   13.2028    0.0000 </r>
      </set>
      <set comment="kpoint 5">
       <r>   -6.0067    1.0000 </r>
       <r>    3.4356    1.0000 </r>
       <r>    4.2795    1.0000 </r>
       <r>    4.2795    1.0000 </r>
       <r>    7.1769    0.0000 </r>
       <r>    9.7756    0.0000 </r>
       <r>    9.8195    0.0000 </r>
       <r>    9.8195    0.0000 </r>
      </set>
      <set comment="kpoint 6">
       <r>   -5.1912    1.0000 </r>
       <r>    1.0359    1.0000 </r>
       <r>    3.4796    1.0000 </r>
       <r>    3.7262    1.0000 </r>
       <r>    7.4375    0.0000 </r>
       <r>    9.5404    0.0000 </r>
       <r>    9.9978    0.0000 </r>
       <r>   10.5496    0.0000 </r>
      </set>
      <set comment="kpoint 7">
       <r>   -3.9992    1.0000 </r>
       <r>   -1.1345    1.0000 </r>
       <r>    2.6952    1.0000 </r>
       <r>    3.6961    1.0000 </r>
       <r>    7.5144    0.0000 </r>
       <r>    9.5901    0.0000 </r>
       <r>   10.0954    0.0000 </r>
       <r>   11.8962    0.0000 </r>
      </set>
      <set comment="kpoint 8">
       <r>   -4.3844    1.0000 </r>
       <r>   -0.5349    1.0000 </r>
       <r>    2.4243    1.0000 </r>
       <r>    4.1755    1.0000 </r>
       <r>    7.9249    0.0000 </r>
       <r>    9.5971    0.0000 </r>
       <r>    9.7030    0.0000 </r>
       <r>   12.7695    0.0000 </r>
      </set>
      <set comment="kpoint 9">
       <r>   -5.5413    1.0000 </r>
       <r>    1.7554    1.0000 </r>
       <r>    3.0592    1.0000 </r>
       <r>    4.9084    1.0000 </r>
       <r>    8.5140    0.0000 </r>
       <r>    9.0315    0.0000 </r>
       <r>    9.3221    0.0000 </r>
       <r>   11.1406    0.0000 </r>
      </set>
      <set comment="kpoint 10">
       <r>   -4.5862    1.0000 </r>
       <r>    0.4618    1.0000 </r>
       <r>    3.0543    1.0000 </r>
       <r>    3.0543    1.0000 </r>
       <r>    6.1989    0.0000 </r>
       <r>    7.4643    0.0000 </r>
       <r>   12.7391    0.0000 </r>
       <r>   12.7391    0.0000 </r>
      </set>
      <set comment="kpoint 11">
       <r>   -3.4219    1.0000 </r>
       <r>   -1.0934    1.0000 </r>
       <r>    1.8392    1.0000 </r>
       <r>    2.9178    1.0000 </r>
       <r>    6.5350    0.0000 </r>
       <r>    8.1903    0.0000 </r>
       <r>   12.9259    0.0000 </r>
       <r>   12.9571    0.0000 </r>
      </set>
      <set comment="kpoint 12">
       <r>   -3.2256    1.0000 </r>
       <r>   -1.2987    1.0000 </r>
       <r>    1.0578    1.0000 </r>
       <r>    3.3604    1.0000 </r>
       <r>    7.0393    0.0000 </r>
       <r>   11.2761    0.0000 </r>
       <r>   11.9513    0.0000 </r>
       <r>   12.5532    0.0000 </r>
      </set>
      <set comment="kpoint 13">
       <r>   -2.3453    1.0000 </r>
       <r>   -2.3453    1.0000 </r>
       <r>    2.6195    1.0000 </r>
       <r>    2.6195    1.0000 </r>
       <r>    6.1815    0.0000 </r>
       <r>    6.1815    0.0000 </r>
       <r>   15.5850    0.0000 </r>
       <r>   15.5850    0.0000 </r>
      </set>
      <set comment="kpoint 14">
       <r>   -4.2009    1.0000 </r>
       <r>   -0.1716    1.0000 </r>
       <r>    1.9017    1.0000 </r>
       <r>    3.1771    1.0000 </r>
       <r>    8.3266    0.0000 </r>
       <r>    9.1882    0.0000 </r>
       <r>    9.7093    0.0000 </r>
       <r>   12.5417    0.0000 </r>
      </set>
      <set comment="kpoint 15">
       <r>   -3.2155    1.0000 </r>
       <r>   -1.3718    1.0000 </r>
       <r>    1.4615    1.0000 </r>
       <r>    2.7101    1.0000 </r>
       <r>    8.8289    0.0000 </r>
       <r>    9.0317    0.0000 </r>
       <r>   11.5758    0.0000 </r>
       <r>   11.9946    0.0000 </r>
      </set>
      <set comment="kpoint 16">
       <r>   -2.2253    1.0000 </r>
       <r>   -2.2253    1.0000 </r>
       <r>    1.8263    1.0000 </r>
       <r>    1.8263    1.0000 </r>
       <r>    8.2221    0.0000 </r>
       <r>    8.2221    0.0000 </r>
       <r>   12.2391    0.0000 </r>
       <r>   12.2391    0.0000 </r>
      </set>
     </set>
    </set>
   </array>
  </eigenvalues>
  <separator name="orbital magnetization" >
   <v name="MAGDIPOLOUT">      0.00000000      0.00000000      0.00000000</v>
  </separator>
  <dos>
   <i name="efermi">      5.50448355 </i>
   <total>
    <array>
     <dimension dim="1">gridpoints</dimension>
     <dimension dim="2">spin</dimension>
     <field>energy</field>
     <field>total</field>
     <field>integrated</field>
     <set>
      <set comment="spin 1">
       <r>    -8.4909     0.0000     0.0000 </r>
       <r>    -8.4040     0.0000     0.0000 </r>
       <r>    -8.3171     0.0000     0.0000 </r>
       <r>    -8.2302     0.0000     0.0000 </r>
       <r>    -8.1433     0.0000     0.0000 </r>
       <r>    -8.0563     0.0000     0.0000 </r>
       <r>    -7.9694     0.0000     0.0000 </r>
       <r>    -7.8825     0.0000     0.0000 </r>
       <r>    -7.7956     0.0000     0.0000 </r>
       <r>    -7.7087     0.0000     0.0000 </r>
       <r>    -7.6217     0.0000     0.0000 </r>
       <r>    -7.5348     0.0000     0.0000 </r>
       <r>    -7.4479     0.0000     0.0000 </r>
       <r>    -7.3610     0.0000     0.0000 </r>
       <r>    -7.2741     0.0000     0.0000 </r>
       <r>    -7.1871     0.0000     0.0000 </r>
       <r>    -7.1002     0.0000     0.0000 </r>
       <r>    -7.0133     0.0000     0.0000 </r>
       <r>    -6.9264     0.0000     0.0000 </r>
       <r>    -6.8395     0.0000     0.0000 </r>
       <r>    -6.7525     0.0000     0.0000 </r>
       <r>    -6.6656     0.0000     0.0000 </r>
       <r>    -6.5787     0.0000     0.0000 </r>
       <r>    -6.4918     0.0000     0.0000 </r>
       <r>    -6.4049     0.0130     0.0004 </r>
       <r>    -6.3180     0.0526     0.0030 </r>
       <r>    -6.2310     0.1188     0.0103 </r>
       <r>    -6.1441     0.2115     0.0244 </r>
       <r>    -6.0572     0.2012     0.0430 </r>
       <r>    -5.9703     0.2144     0.0608 </r>
       <r>    -5.8834     0.2381     0.0805 </r>
       <r>    -5.7964     0.2629     0.1022 </r>
       <r>    -5.7095     0.2887     0.1262 </r>
       <r>    -5.6226     0.3158     0.1525 </r>
       <r>    -5.5357     0.3439     0.1811 </r>
       <r>    -5.4488     0.3696     0.2122 </r>
       <r>    -5.3618     0.3902     0.2452 </r>
       <r>    -5.2749     0.4057     0.2798 </r>
       <r>    -5.1880     0.4163     0.3156 </r>
       <r>    -5.1011     0.4353     0.3525 </r>
       <r>    -5.0142     0.4593     0.3914 </r>
       <r>    -4.9272     0.4848     0.4324 </r>
       <r>    -4.8403     0.5118     0.4757 </r>
       <r>    -4.7534     0.5402     0.5214 </r>
       <r>    -4.6665     0.5701     0.5697 </r>
       <r>    -4.5796     0.6015     0.6206 </r>
       <r>    -4.4926     0.6344     0.6743 </r>
       <r>    -4.4057     0.6688     0.7309 </r>
       <r>    -4.3188     0.7286     0.7911 </r>
       <r>    -4.2319     0.8717     0.8600 </r>
       <r>    -4.1450     1.0916     0.9450 </r>
       <r>    -4.0580     1.0691     1.0420 </r>
       <r>    -3.9711     0.8141     1.1213 </r>
       <r>    -3.8842     0.8028     1.1916 </r>
       <r>    -3.7973     0.7913     1.2609 </r>
       <r>    -3.7104     0.7797     1.3291 </r>
       <r>    -3.6234     0.7679     1.3964 </r>
       <r>    -3.5365     0.7560     1.4626 </r>
       <r>    -3.4496     0.7439     1.5278 </r>
       <r>    -3.3627     0.7735     1.5934 </r>
       <r>    -3.2758     0.7338     1.6597 </r>
       <r>    -3.1888     0.6293     1.7185 </r>
       <r>    -3.1019     0.5645     1.7704 </r>
       <r>    -3.0150     0.5008     1.8167 </r>
       <r>    -2.9281     0.4384     1.8575 </r>
       <r>    -2.8412     0.3772     1.8929 </r>
       <r>    -2.7542     0.3171     1.9231 </r>
       <r>    -2.6673     0.2583     1.9481 </r>
       <r>    -2.5804     0.2006     1.9680 </r>
       <r>    -2.4935     0.1442     1.9830 </r>
       <r>    -2.4066     0.0890     1.9931 </r>
       <r>    -2.3196     0.0367     1.9985 </r>
       <r>    -2.2327     0.0171     2.0006 </r>
       <r>    -2.1458     0.0655     2.0040 </r>
       <r>    -2.0589     0.1202     2.0120 </r>
       <r>    -1.9720     0.1769     2.0249 </r>
       <r>    -1.8850     0.2358     2.0429 </r>
       <r>    -1.7981     0.2968     2.0660 </r>
       <r>    -1.7112     0.3598     2.0945 </r>
       <r>    -1.6243     0.4250     2.1286 </r>
       <r>    -1.5374     0.4923     2.1684 </r>
       <r>    -1.4504     0.5666     2.2143 </r>
       <r>    -1.3635     0.6686     2.2679 </r>
       <r>    -1.2766     1.2440     2.3457 </r>
       <r>    -1.1897     1.6272     2.4752 </r>
       <r>    -1.1028     1.3186     2.6085 </r>
       <r>    -1.0159     1.1529     2.7151 </r>
       <r>    -0.9289     1.0208     2.8094 </r>
       <r>    -0.8420     0.9052     2.8930 </r>
       <r>    -0.7551     0.8061     2.9673 </r>
       <r>    -0.6682     0.7237     3.0336 </r>
       <r>    -0.5813     0.6578     3.0936 </r>
       <r>    -0.4943     0.5871     3.1480 </r>
       <r>    -0.4074     0.5109     3.1956 </r>
       <r>    -0.3205     0.4543     3.2374 </r>
       <r>    -0.2336     0.4174     3.2752 </r>
       <r>    -0.1467     0.3992     3.3105 </r>
       <r>    -0.0597     0.3867     3.3447 </r>
       <r>     0.0272     0.3749     3.3778 </r>
       <r>     0.1141     0.3639     3.4099 </r>
       <r>     0.2010     0.3536     3.4411 </r>
       <r>     0.2879     0.3433     3.4714 </r>
       <r>     0.3749     0.3332     3.5008 </r>
       <r>     0.4618     0.3232     3.5293 </r>
       <r>     0.5487     0.3124     3.5569 </r>
       <r>     0.6356     0.3000     3.5835 </r>
       <r>     0.7225     0.2860     3.6090 </r>
       <r>     0.8095     0.2703     3.6332 </r>
       <r>     0.8964     0.2530     3.6560 </r>
       <r>     0.9833     0.2341     3.6771 </r>
       <r>     1.0702     0.2155     3.6966 </r>
       <r>     1.1571     0.2387     3.7159 </r>
       <r>     1.2441     0.3251     3.7400 </r>
       <r>     1.3310     0.4748     3.7743 </r>
       <r>     1.4179     0.6877     3.8243 </r>
       <r>     1.5048     0.9586     3.8957 </r>
       <r>     1.5917     1.1790     3.9892 </r>
       <r>     1.6787     1.3176     4.0982 </r>
       <r>     1.7656     1.3746     4.2158 </r>
       <r>     1.8525     2.2109     4.3573 </r>
       <r>     1.9394     1.0869     4.4703 </r>
       <r>     2.0263     1.0925     4.5650 </r>
       <r>     2.1133     1.1104     4.6606 </r>
       <r>     2.2002     1.1407     4.7584 </r>
       <r>     2.2871     1.1833     4.8593 </r>
       <r>     2.3740     1.2383     4.9644 </r>
       <r>     2.4609     1.2916     5.0746 </r>
       <r>     2.5479     1.3311     5.1886 </r>
       <r>     2.6348     1.3732     5.3061 </r>
       <r>     2.7217     1.4240     5.4274 </r>
       <r>     2.8086     1.5050     5.5546 </r>
       <r>     2.8955     1.5945     5.6893 </r>
       <r>     2.9825     1.6983     5.8329 </r>
       <r>     3.0694     1.6432     5.9793 </r>
       <r>     3.1563     1.5611     6.1181 </r>
       <r>     3.2432     1.5338     6.2525 </r>
       <r>     3.3301     1.5143     6.3849 </r>
       <r>     3.4171     1.5004     6.5159 </r>
       <r>     3.5040     1.4741     6.6457 </r>
       <r>     3.5909     1.4022     6.7707 </r>
       <r>     3.6778     1.3231     6.8892 </r>
       <r>     3.7647     1.3061     7.0028 </r>
       <r>     3.8517     1.2978     7.1161 </r>
       <r>     3.9386     1.2680     7.2278 </r>
       <r>     4.0255     1.2168     7.3359 </r>
       <r>     4.1124     1.1442     7.4387 </r>
       <r>     4.1993     1.0458     7.5342 </r>
       <r>     4.2862     0.8551     7.6176 </r>
       <r>     4.3732     0.6721     7.6833 </r>
       <r>     4.4601     0.5707     7.7368 </r>
       <r>     4.5470     0.5215     7.7842 </r>
       <r>     4.6339     0.4753     7.8275 </r>
       <r>     4.7208     0.4312     7.8669 </r>
       <r>     4.8078     0.3893     7.9025 </r>
       <r>     4.8947     0.3495     7.9346 </r>
       <r>     4.9816     0.2681     7.9623 </r>
       <r>     5.0685     0.1518     7.9795 </r>
       <r>     5.1554     0.0937     7.9901 </r>
       <r>     5.2424     0.0495     7.9962 </r>
       <r>     5.3293     0.0193     7.9991 </r>
       <r>     5.4162     0.0030     7.9999 </r>
       <r>     5.5031     0.0000     8.0000 </r>
       <r>     5.5900     0.0000     8.0000 </r>
       <r>     5.6770     0.0000     8.0000 </r>
       <r>     5.7639     0.0000     8.0000 </r>
       <r>     5.8508     0.0000     8.0000 </r>
       <r>     5.9377     0.0000     8.0000 </r>
       <r>     6.0246     0.0000     8.0000 </r>
       <r>     6.1116     0.0000     8.0000 </r>
       <r>     6.1985     0.0150     8.0001 </r>
       <r>     6.2854     0.1447     8.0074 </r>
       <r>     6.3723     0.2188     8.0236 </r>
       <r>     6.4592     0.2372     8.0439 </r>
       <r>     6.5462     0.2125     8.0633 </r>
       <r>     6.6331     0.2512     8.0834 </r>
       <r>     6.7200     0.2932     8.1071 </r>
       <r>     6.8069     0.3384     8.1345 </r>
       <r>     6.8938     0.3868     8.1660 </r>
       <r>     6.9808     0.4383     8.2018 </r>
       <r>     7.0677     0.5032     8.2425 </r>
       <r>     7.1546     0.6179     8.2908 </r>
       <r>     7.2415     0.7903     8.3515 </r>
       <r>     7.3284     1.0594     8.4311 </r>
       <r>     7.4154     1.4482     8.5392 </r>
       <r>     7.5023     1.8167     8.6832 </r>
       <r>     7.5892     1.8621     8.8439 </r>
       <r>     7.6761     1.8702     9.0063 </r>
       <r>     7.7630     1.8605     9.1685 </r>
       <r>     7.8500     1.7826     9.3285 </r>
       <r>     7.9369     1.6192     9.4758 </r>
       <r>     8.0238     1.5076     9.6116 </r>
       <r>     8.1107     1.3898     9.7378 </r>
       <r>     8.1976     1.2555     9.8524 </r>
       <r>     8.2846     1.1689     9.9580 </r>
       <r>     8.3715     1.0600    10.0548 </r>
       <r>     8.4584     0.9932    10.1436 </r>
       <r>     8.5453     0.9742    10.2289 </r>
       <r>     8.6322     0.9472    10.3126 </r>
       <r>     8.7192     0.9095    10.3931 </r>
       <r>     8.8061     0.8953    10.4714 </r>
       <r>     8.8930     1.0431    10.5537 </r>
       <r>     8.9799     1.3281    10.6560 </r>
       <r>     9.0668     1.5725    10.7831 </r>
       <r>     9.1538     1.9382    10.9339 </r>
       <r>     9.2407     2.4694    11.1257 </r>
       <r>     9.3276     2.8501    11.3583 </r>
       <r>     9.4145     3.0788    11.6168 </r>
       <r>     9.5014     3.1810    11.8898 </r>
       <r>     9.5884     2.4025    12.1538 </r>
       <r>     9.6753     1.6283    12.2941 </r>
       <r>     9.7622     1.5002    12.4278 </r>
       <r>     9.8491     1.4718    12.5582 </r>
       <r>     9.9360     1.2293    12.6773 </r>
       <r>    10.0229     0.8377    12.7663 </r>
       <r>    10.1099     0.7259    12.8324 </r>
       <r>    10.1968     0.7215    12.8952 </r>
       <r>    10.2837     0.7260    12.9581 </r>
       <r>    10.3706     0.7395    13.0217 </r>
       <r>    10.4575     0.7620    13.0869 </r>
       <r>    10.5445     0.7934    13.1544 </r>
       <r>    10.6314     0.7936    13.2235 </r>
       <r>    10.7183     0.7863    13.2922 </r>
       <r>    10.8052     0.7735    13.3600 </r>
       <r>    10.8921     0.7555    13.4265 </r>
       <r>    10.9791     0.6976    13.4903 </r>
       <r>    11.0660     0.6471    13.5484 </r>
       <r>    11.1529     0.6397    13.6040 </r>
       <r>    11.2398     0.6501    13.6601 </r>
       <r>    11.3267     0.6632    13.7171 </r>
       <r>    11.4137     0.6775    13.7754 </r>
       <r>    11.5006     0.6927    13.8349 </r>
       <r>    11.5875     0.7192    13.8959 </r>
       <r>    11.6744     0.7991    13.9621 </r>
       <r>    11.7613     0.8556    14.0341 </r>
       <r>    11.8483     0.8885    14.1101 </r>
       <r>    11.9352     1.0909    14.1918 </r>
       <r>    12.0221     1.5436    14.3021 </r>
       <r>    12.1090     2.0760    14.4625 </r>
       <r>    12.1959     2.1891    14.6509 </r>
       <r>    12.2829     2.1085    14.8355 </r>
       <r>    12.3698     2.0754    15.0180 </r>
       <r>    12.4567     1.9474    15.1935 </r>
       <r>    12.5436     1.7248    15.3538 </r>
       <r>    12.6305     1.5169    15.4955 </r>
       <r>    12.7175     1.1631    15.6131 </r>
       <r>    12.8044     0.8127    15.6958 </r>
       <r>    12.8913     0.5969    15.7578 </r>
       <r>    12.9782     0.3564    15.7974 </r>
       <r>    13.0651     0.3053    15.8262 </r>
       <r>    13.1521     0.2484    15.8503 </r>
       <r>    13.2390     0.1889    15.8693 </r>
       <r>    13.3259     0.1547    15.8840 </r>
       <r>    13.4128     0.1424    15.8969 </r>
       <r>    13.4997     0.1313    15.9088 </r>
       <r>    13.5867     0.1205    15.9197 </r>
       <r>    13.6736     0.1103    15.9297 </r>
       <r>    13.7605     0.1005    15.9389 </r>
       <r>    13.8474     0.0911    15.9472 </r>
       <r>    13.9343     0.0822    15.9547 </r>
       <r>    14.0213     0.0738    15.9615 </r>
       <r>    14.1082     0.0658    15.9676 </r>
       <r>    14.1951     0.0583    15.9730 </r>
       <r>    14.2820     0.0512    15.9777 </r>
       <r>    14.3689     0.0446    15.9819 </r>
       <r>    14.4559     0.0385    15.9855 </r>
       <r>    14.5428     0.0328    15.9886 </r>
       <r>    14.6297     0.0275    15.9912 </r>
       <r>    14.7166     0.0228    15.9934 </r>
       <r>    14.8035     0.0184    15.9952 </r>
       <r>    14.8905     0.0146    15.9966 </r>
       <r>    14.9774     0.0111    15.9977 </r>
       <r>    15.0643     0.0082    15.9986 </r>
       <r>    15.1512     0.0057    15.9992 </r>
       <r>    15.2381     0.0036    15.9996 </r>
       <r>    15.3250     0.0020    15.9998 </r>
       <r>    15.4120     0.0009    15.9999 </r>
       <r>    15.4989     0.0002    16.0000 </r>
       <r>    15.5858     0.0000    16.0000 </r>
       <r>    15.6727     0.0000    16.0000 </r>
       <r>    15.7596     0.0000    16.0000 </r>
       <r>    15.8466     0.0000    16.0000 </r>
       <r>    15.9335     0.0000    16.0000 </r>
       <r>    16.0204     0.0000    16.0000 </r>
       <r>    16.1073     0.0000    16.0000 </r>
       <r>    16.1942     0.0000    16.0000 </r>
       <r>    16.2812     0.0000    16.0000 </r>
       <r>    16.3681     0.0000    16.0000 </r>
       <r>    16.4550     0.0000    16.0000 </r>
       <r>    16.5419     0.0000    16.0000 </r>
       <r>    16.6288     0.0000    16.0000 </r>
       <r>    16.7158     0.0000    16.0000 </r>
       <r>    16.8027     0.0000    16.0000 </r>
       <r>    16.8896     0.0000    16.0000 </r>
       <r>    16.9765     0.0000    16.0000 </r>
       <r>    17.0634     0.0000    16.0000 </r>
       <r>    17.1504     0.0000    16.0000 </r>
       <r>    17.2373     0.0000    16.0000 </r>
       <r>    17.3242     0.0000    16.0000 </r>
       <r>    17.4111     0.0000    16.0000 </r>
       <r>    17.4980     0.0000    16.0000 </r>
       <r>    17.5850     0.0000    16.0000 </r>
      </set>
     </set>
    </array>
   </total>
  </dos>
 </calculation>
 <structure name="finalpos" >
  <crystal>
   <varray name="basis" >
    <v>       2.71500000       2.71500000       0.00000000 </v>
    <v>       0.00000000       2.71500000       2.71500000 </v>
    <v>       2.71500000       0.00000000       2.71500000 </v>
   </varray>
   <i name="volume">     40.02575175 </i>
   <varray name="rec_basis" >
    <v>       0.18416206       0.18416206      -0.18416206 </v>
    <v>      -0.18416206       0.18416206       0.18416206 </v>
    <v>       0.18416206      -0.18416206       0.18416206 </v>
   </varray>
  </crystal>
  <varray name="positions" >
   <v>       0.00000000       0.00000000       0.00000000 </v>
   <v>       0.25000000       0.25000000       0.25000000 </v>
  </varray>
 </structure>
</modeling>
